----- GAMESS execution script 'rungms' -----
This job is running on host chemcompute-node-0.novalocal
under operating system Linux at Sun Nov 7 13:45:07 UTC 2021
SLURM has assigned the following compute nodes to this run:
chemcompute-node-0
Available scratch disk space (Kbyte units) at beginning of the job is
Filesystem     1K-blocks     Used Available Use% Mounted on
/dev/sda1       62903276 16642208  46261068  27% /
GAMESS temporary binary files will be written to /scratch/302531
GAMESS supplementary output files will be written to /data/slurm/337600
Copying input file 337600.inp to your run's scratch directory...
The generated host list is
chemcompute-node-0.novalocal

 Distributed Data Interface kickoff program.
 Initiating 1 compute processes on 1 nodes to run the following command:
 /data/gamess-2019R1-ddi/gamess.00.x 337600 

          ******************************************************
          *         GAMESS VERSION = 30 JUN 2019 (R1)          *
          *             FROM IOWA STATE UNIVERSITY             *
          * M.W.SCHMIDT, K.K.BALDRIDGE, J.A.BOATZ, S.T.ELBERT, *
          *   M.S.GORDON, J.H.JENSEN, S.KOSEKI, N.MATSUNAGA,   *
          *          K.A.NGUYEN, S.J.SU, T.L.WINDUS,           *
          *       TOGETHER WITH M.DUPUIS, J.A.MONTGOMERY       *
          *         J.COMPUT.CHEM.  14, 1347-1363(1993)        *
          **************** 64 BIT LINUX VERSION ****************

  SINCE 1993, STUDENTS AND POSTDOCS WORKING AT IOWA STATE UNIVERSITY
  AND ALSO IN THEIR VARIOUS JOBS AFTER LEAVING ISU HAVE MADE IMPORTANT
  CONTRIBUTIONS TO THE CODE:
     IVANA ADAMOVIC, CHRISTINE AIKENS, YURI ALEXEEV, POOJA ARORA,
     ANDREY ASADCHEV, ROB BELL, PRADIPTA BANDYOPADHYAY, JONATHAN BENTZ,
     COLLEEN BERTONI, BRETT BODE, KURT BRORSEN, CALEB CARLIN, GALINA CHABAN,
     WEI CHEN, CHEOL HO CHOI, PAUL DAY, ALBERT DEFUSCO, NUWAN DESILVA,
     TIM DUDLEY, DMITRI FEDOROV, ALEX FINDLATER, GRAHAM FLETCHER, 
     MARK FREITAG, KURT GLAESEMANN, ANASTASIA GUNINA,
     DAN KEMP, GRANT MERRILL, NORIYUKI MINEZAWA, JONATHAN MULLIN,
     TAKESHI NAGATA, SEAN NEDD, HEATHER NETZLOFF, BOSILJKA NJEGIC, RYAN OLSON,
     MIKE PAK, BUU PHAM,
     SPENCER PRUITT, LUKE ROSKOP, JIM SHOEMAKER, LYUDMILA SLIPCHENKO,
     TONY SMITH, SAROM SOK LEANG, JIE SONG, TETSUYA TAKETSUGU, SIMON WEBB,
     PENG XU, SOOHAENG YOO, FEDERICO ZAHARIEV

  ADDITIONAL CODE HAS BEEN PROVIDED BY COLLABORATORS IN OTHER GROUPS:
     IOWA STATE UNIVERSITY:
          JOE IVANIC, AARON WEST, LAIMUTIS BYTAUTAS, KLAUS RUEDENBERG
     UNIVERSITY OF TOKYO: KIMIHIKO HIRAO, TAKAHITO NAKAJIMA,
          TAKAO TSUNEDA, MUNEAKI KAMIYA, SUSUMU YANAGISAWA,
          KIYOSHI YAGI, MAHITO CHIBA, SEIKEN TOKURA, NAOAKI KAWAKAMI
     UNIVERSITY OF AARHUS: FRANK JENSEN
     UNIVERSITY OF IOWA: VISVALDAS KAIRYS, HUI LI
     NATIONAL INST. OF STANDARDS AND TECHNOLOGY: WALT STEVENS, DAVID GARMER
     UNIVERSITY OF PISA: BENEDETTA MENNUCCI, JACOPO TOMASI
     UNIVERSITY OF MEMPHIS: HENRY KURTZ, PRAKASHAN KORAMBATH
     UNIVERSITY OF ALBERTA: TOBY ZENG, MARIUSZ KLOBUKOWSKI
     UNIVERSITY OF NEW ENGLAND: MARK SPACKMAN
     MIE UNIVERSITY: HIROAKI UMEDA
     NAT. INST. OF ADVANCED INDUSTRIAL SCIENCE AND TECHNOLOGY: KAZUO KITAURA
     MICHIGAN STATE UNIVERSITY:
          KAROL KOWALSKI, MARTA WLOCH, JEFFREY GOUR, JESSE LUTZ,
          WEI LI, JUN SHEN, J. EMILIANO DEUSTUA, PIOTR PIECUCH
     UNIVERSITY OF MINNESOTA:
          YINAN SHU
     UNIVERSITY OF SILESIA: MONIKA MUSIAL, STANISLAW KUCHARSKI
     FACULTES UNIVERSITAIRES NOTRE-DAME DE LA PAIX:
          OLIVIER QUINET, BENOIT CHAMPAGNE
     UNIVERSITY OF CALIFORNIA - SANTA BARBARA: BERNARD KIRTMAN
     INSTITUTE FOR MOLECULAR SCIENCE:
          KAZUYA ISHIMURA, MICHIO KATOUDA, AND SHIGERU NAGASE
     UNIVERSITY OF NOTRE DAME: ANNA POMOGAEVA, DAN CHIPMAN
     KYUSHU UNIVERSITY:
          HARUYUKI NAKANO,
          FENG LONG GU, JACEK KORCHOWIEC, MARCIN MAKOWSKI, AND YURIKO AOKI,
          HIROTOSHI MORI AND EISAKU MIYOSHI
     PENNSYLVANIA STATE UNIVERSITY:
          TZVETELIN IORDANOV, CHET SWALINA, JONATHAN SKONE,
          SHARON HAMMES-SCHIFFER
     WASEDA UNIVERSITY:
          MASATO KOBAYASHI, TOMOKO AKAMA, TSUGUKI TOUMA,
          TAKESHI YOSHIKAWA, YASUHIRO IKABATA, JUNJI SEINO,
          YUYA NAKAJIMA, HIROMI NAKAI
     NANJING UNIVERSITY: SHUHUA LI
     UNIVERSITY OF NEBRASKA:
          PEIFENG SU, DEJUN SI, NANDUN THELLAMUREGE, YALI WANG, HUI LI
     UNIVERSITY OF ZURICH: ROBERTO PEVERATI, KIM BALDRIDGE
     N. COPERNICUS UNIVERSITY AND JACKSON STATE UNIVERSITY:
          MARIA BARYSZ
     UNIVERSITY OF COPENHAGEN: Jimmy Kromann, CASPER STEINMANN
     TOKYO INSTITUTE OF TECHNOLOGY: HIROYA NAKATA
     NAGOYA UNIVERSITY: YOSHIO NISHIMOTO, STEPHAN IRLE
     MOSCOW STATE UNIVERSITY: VLADIMIR MIRONOV
     A.N.NESMEYANOV INSTITUTE OF ORGANOELEMENT COMPOUNDS OF RUSSIAN ACADEMY OF SCIENCES:
          IGOR S. GERASIMOV

 EXECUTION OF GAMESS BEGUN Sun Nov  7 13:45:07 2021

            ECHO OF THE FIRST FEW INPUT CARDS -
 INPUT CARD>!File created by the GAMESS Input Deck Generator Plugin for Avogadro            
 INPUT CARD> $BASIS GBASIS=STO NGAUSS=3 $END                                                
 INPUT CARD> $CONTRL SCFTYP=RHF RUNTYP=OPTIMIZE NZVAR=1 mult=1  ICHARG=0 $END               
 INPUT CARD> $STATPT hssend=.t. OPTTOL=0.0005 NSTEP=50 $END                                 
 INPUT CARD> $STATPT HESS=calc ihrep=5 $END                                                 
 INPUT CARD> $FORCE nvib=2 $END                                                             
 INPUT CARD> $ZMAT DLC=.t. auto=.t. nonvdw(1)=4,17 $END                                     
 INPUT CARD> $ZMAT IFZMAT(1)=1,4,17 fvalue(1)=1.85 $END                                     
 INPUT CARD>                                                                                
 INPUT CARD> $DATA                                                                          
 INPUT CARD>Title                                                                           
 INPUT CARD>C1                                                                              
 INPUT CARD>C     6.0    -0.10278     1.08876    -0.02976                                   
 INPUT CARD>C     6.0    -1.08443    -0.08049     0.01712                                   
 INPUT CARD>C     6.0    -0.19341    -1.20746     0.51150                                   
 INPUT CARD>C     6.0     1.16638     0.40533    -0.49804                                   
 INPUT CARD>C     6.0     1.03432    -0.91912    -0.28971                                   
 INPUT CARD>C     6.0     1.92787    -1.95823    -0.89521                                   
 INPUT CARD>H     1.0     0.04120     1.47964     1.00092                                   
 INPUT CARD>H     1.0    -0.45295     1.90649    -0.69417                                   
 INPUT CARD>H     1.0    -1.39099    -0.32248    -1.02803                                   
 INPUT CARD>H     1.0    -1.99925     0.10356     0.61916                                   
 INPUT CARD>H     1.0    -0.62244    -2.22218     0.37122                                   
 INPUT CARD>H     1.0     0.03565    -1.03342     1.58723                                   
 INPUT CARD>H     1.0     1.85422     0.76749    -1.27190                                   
 INPUT CARD>H     1.0     1.58224    -2.97528    -0.61532                                   
 INPUT CARD>H     1.0     2.96600    -1.81900    -0.52788                                   
 INPUT CARD>H     1.0     1.91452    -1.86628    -2.00146                                   
 INPUT CARD>B     5.0     2.71001     1.08210     0.96566                                   
 INPUT CARD>H     1.0     2.43579     0.45578     1.93237                                   
 INPUT CARD>H     1.0     2.50341     2.24607     1.03127                                   
 INPUT CARD>H     1.0     3.71676     0.77200     0.42493                                   
 INPUT CARD> $END                                                                           
    1000000 WORDS OF MEMORY AVAILABLE

     BASIS OPTIONS
     -------------
     GBASIS=STO          IGAUSS=       3      POLAR=NONE    
     NDFUNC=       0     NFFUNC=       0     DIFFSP=       F
     NPFUNC=       0      DIFFS=       F     BASNAM=        


     RUN TITLE
     ---------
 Title                                                                           

 THE POINT GROUP OF THE MOLECULE IS C1      
 THE ORDER OF THE PRINCIPAL AXIS IS     0

 ATOM      ATOMIC                      COORDINATES (BOHR)
           CHARGE         X                   Y                   Z
 C           6.0    -0.1942260370        2.0574580664       -0.0562382454
 C           6.0    -2.0492755529       -0.1521040448        0.0323521089
 C           6.0    -0.3654919033       -2.2817685411        0.9665948427
 C           6.0     2.2041385976        0.7659626346       -0.9411591309
 C           6.0     1.9545813836       -1.7368849498       -0.5474725159
 C           6.0     3.6431460399       -3.7005181209       -1.6917016015
 H           1.0     0.0778567107        2.7961141605        1.8914645356
 H           1.0    -0.8559513861        3.6027436983       -1.3117910889
 H           1.0    -2.6285899517       -0.6093988365       -1.9426950072
 H           1.0    -3.7780346810        0.1957000233        1.1700427426
 H           1.0    -1.1762410438       -4.1993112954        0.7015040812
 H           1.0     0.0673687315       -1.9528806302        2.9994297795
 H           1.0     3.5039677210        1.4503457983       -2.4035424838
 H           1.0     2.9900000468       -5.6224639367       -1.1627861948
 H           1.0     5.6049272796       -3.4374115717       -0.9975485544
 H           1.0     3.6179181980       -3.5267578164       -3.7822109754
 B           5.0     5.1211763240        2.0448724913        1.8248327973
 H           1.0     4.6029756636        0.8612993107        3.6516498069
 H           1.0     4.7307589349        4.2444568492        1.9488177194
 H           1.0     7.0236579621        1.4588684625        0.8030012640

          INTERNUCLEAR DISTANCES (ANGS.)
          ------------------------------

                1 C          2 C          3 C          4 C          5 C     

   1 C       0.0000000    1.5274096 *  2.3608902 *  1.5156285 *  2.3221009 *
   2 C       1.5274096 *  0.0000000    1.5193385 *  2.3595670 *  2.2992491 *
   3 C       2.3608902 *  1.5193385 *  0.0000000    2.3386516 *  1.4941213 *
   4 C       1.5156285 *  2.3595670 *  2.3386516 *  0.0000000    1.3472227 *
   5 C       2.3221009 *  2.2992491 *  1.4941213 *  1.3472227 *  0.0000000  
   6 C       3.7625379    3.6649972    2.6537365 *  2.5147618 *  1.4982695 *
   7 H       1.1116738 *  2.1607663 *  2.7413647 *  2.1603363 *  2.8993211 *
   8 H       1.1102892 *  2.2029049 *  3.3492814    2.2167945 *  3.2186382  
   9 H       2.1558354 *  1.1157404 *  2.1418544 *  2.7112245 *  2.6044624 *
  10 H       2.2334535 *  1.1105054 *  2.2341491 *  3.3705214    3.3278320  
  11 H       3.3753748    2.2193823 *  1.1105863 *  3.2953450    2.2089924 *
  12 H       2.6716039 *  2.1512555 *  1.1135320 *  2.7743293 *  2.1291571 *
  13 H       2.3400802 *  3.3190822    3.3576378    1.0968788 *  2.1169758 *
  14 H       4.4383098    3.9863415    2.7473339 *  3.4081106    2.1526802 *
  15 H       4.2568301    4.4413315    3.3817397    2.8613225 *  2.1442706 *
  16 H       4.0852615    4.0320481    3.3455016    2.8249243 *  2.1452161 *
  17 B       2.9837381 *  4.0803331    3.7253448    2.2323147 *  2.8963377 *
  18 H       3.2703143    4.0432310    3.4202239    2.7424149 *  2.9651488 *
  19 H       3.0425939    4.3947671    4.4124674    2.7413066 *  3.7311716  
  20 H       3.8595292    4.8933091    4.3835129    2.7369250 *  3.2505510  

                6 C          7 H          8 H          9 H         10 H     

   1 C       3.7625379    1.1116738 *  1.1102892 *  2.1558354 *  2.2334535 *
   2 C       3.6649972    2.1607663 *  2.2029049 *  1.1157404 *  1.1105054 *
   3 C       2.6537365 *  2.7413647 *  3.3492814    2.1418544 *  2.2341491 *
   4 C       2.5147618 *  2.1603363 *  2.2167945 *  2.7112245 *  3.3705214  
   5 C       1.4982695 *  2.8993211 *  3.2186382    2.6044624 *  3.3278320  
   6 C       0.0000000    4.3558906    4.5436529    3.7024520    4.6868503  
   7 H       4.3558906    0.0000000    1.8165118 *  3.0684594    2.4905367 *
   8 H       4.5436529    1.8165118 *  0.0000000    2.4412474 *  2.7141179 *
   9 H       3.7024520    3.0684594    2.4412474 *  0.0000000    1.8068551 *
  10 H       4.6868503    2.4905367 *  2.7141179 *  1.8068551 *  0.0000000  
  11 H       2.8596496 *  3.8131891    4.2672824    2.4814169 *  2.7140646 *
  12 H       3.2554997    2.5805544 *  3.7532102    3.0627312    2.5240248 *
  13 H       2.7526113 *  2.9933109 *  2.6370678 *  3.4320395    4.3435172  
  14 H       1.1100402 *  4.9833070    5.2896024    4.0059673    4.8816255  
  15 H       1.1099686 *  4.6661237    5.0592635    4.6339059    5.4466178  
  16 H       1.1101451 *  4.8701945    4.6419516    3.7758815    5.1054397  
  17 B       3.6494091    2.6984863 *  3.6659201    4.7713568    4.8223161  
  18 H       3.7524173    2.7658542 *  4.1651039    4.9003981    4.6387670  
  19 H       4.6603337    2.5789172 *  3.4398433    5.0994624    5.0034119  
  20 H       3.5209449    3.7871177    4.4638474    5.4220005    5.7582382  

               11 H         12 H         13 H         14 H         15 H     

   1 C       3.3753748    2.6716039 *  2.3400802 *  4.4383098    4.2568301  
   2 C       2.2193823 *  2.1512555 *  3.3190822    3.9863415    4.4413315  
   3 C       1.1105863 *  1.1135320 *  3.3576378    2.7473339 *  3.3817397  
   4 C       3.2953450    2.7743293 *  1.0968788 *  3.4081106    2.8613225 *
   5 C       2.2089924 *  2.1291571 *  2.1169758 *  2.1526802 *  2.1442706 *
   6 C       2.8596496 *  3.2554997    2.7526113 *  1.1100402 *  1.1099686 *
   7 H       3.8131891    2.5805544 *  2.9933109 *  4.9833070    4.6661237  
   8 H       4.2672824    3.7532102    2.6370678 *  5.2896024    5.0592635  
   9 H       2.4814169 *  3.0627312    3.4320395    4.0059673    4.6339059  
  10 H       2.7140646 *  2.5240248 *  4.3435172    4.8816255    5.4466178  
  11 H       0.0000000    1.8234344 *  4.2156630    2.5300266 *  3.7212681  
  12 H       1.8234344 *  0.0000000    3.8373295    3.3187328    3.6983479  
  13 H       4.2156630    3.8373295    0.0000000    3.8096453    2.9119669 *
  14 H       2.5300266 *  3.3187328    3.8096453    0.0000000    1.8053866 *
  15 H       3.7212681    3.6983479    2.9119669 *  1.8053866 *  0.0000000  
  16 H       3.4917676    4.1355174    2.7336127 *  1.8060108 *  1.8108792 *
  17 B       4.7304173    3.4661182    2.4162017 *  4.4981880    3.2730068  
  18 H       4.3544724    2.8456125 *  3.2715032    4.3579175    3.3924293  
  19 H       5.4928920    4.1417370    2.8128702 *  5.5517843    4.3783253  
  20 H       5.2722533    4.2615788    2.5195848 *  4.4362600    2.8609034 *

               16 H         17 B         18 H         19 H         20 H     

   1 C       4.0852615    2.9837381 *  3.2703143    3.0425939    3.8595292  
   2 C       4.0320481    4.0803331    4.0432310    4.3947671    4.8933091  
   3 C       3.3455016    3.7253448    3.4202239    4.4124674    4.3835129  
   4 C       2.8249243 *  2.2323147 *  2.7424149 *  2.7413066 *  2.7369250 *
   5 C       2.1452161 *  2.8963377 *  2.9651488 *  3.7311716    3.2505510  
   6 C       1.1101451 *  3.6494091    3.7524173    4.6603337    3.5209449  
   7 H       4.8701945    2.6984863 *  2.7658542 *  2.5789172 *  3.7871177  
   8 H       4.6419516    3.6659201    4.1651039    3.4398433    4.4638474  
   9 H       3.7758815    4.7713568    4.9003981    5.0994624    5.4220005  
  10 H       5.1054397    4.8223161    4.6387670    5.0034119    5.7582382  
  11 H       3.4917676    4.7304173    4.3544724    5.4928920    5.2722533  
  12 H       4.1355174    3.4661182    2.8456125 *  4.1417370    4.2615788  
  13 H       2.7336127 *  2.4162017 *  3.2715032    2.8128702 *  2.5195848 *
  14 H       1.8060108 *  4.4981880    4.3579175    5.5517843    4.4362600  
  15 H       1.8108792 *  3.2730068    3.3924293    4.3783253    2.8609034 *
  16 H       0.0000000    4.2578809    4.5976846    5.1435071    4.0119769  
  17 B       4.2578809    0.0000000    1.1840615 *  1.1839824 *  1.1841016 *
  18 H       4.5976846    1.1840615 *  0.0000000    2.0054157 *  2.0033109 *
  19 H       5.1435071    1.1839824 *  2.0054157 *  0.0000000    2.0031847 *
  20 H       4.0119769    1.1841016 *  2.0033109 *  2.0031847 *  0.0000000  

  * ... LESS THAN  3.000


     ATOMIC BASIS SET
     ----------------
 THE CONTRACTED PRIMITIVE FUNCTIONS HAVE BEEN UNNORMALIZED
 THE CONTRACTED BASIS FUNCTIONS ARE NOW NORMALIZED TO UNITY

  SHELL TYPE  PRIMITIVE        EXPONENT          CONTRACTION COEFFICIENT(S)

 C         

      1   S       1            71.6168373    0.154328967295
      1   S       2            13.0450963    0.535328142282
      1   S       3             3.5305122    0.444634542185

      2   L       4             2.9412494   -0.099967229187    0.155916274999
      2   L       5             0.6834831    0.399512826089    0.607683718598
      2   L       6             0.2222899    0.700115468880    0.391957393099

 C         

      3   S       7            71.6168373    0.154328967295
      3   S       8            13.0450963    0.535328142282
      3   S       9             3.5305122    0.444634542185

      4   L      10             2.9412494   -0.099967229187    0.155916274999
      4   L      11             0.6834831    0.399512826089    0.607683718598
      4   L      12             0.2222899    0.700115468880    0.391957393099

 C         

      5   S      13            71.6168373    0.154328967295
      5   S      14            13.0450963    0.535328142282
      5   S      15             3.5305122    0.444634542185

      6   L      16             2.9412494   -0.099967229187    0.155916274999
      6   L      17             0.6834831    0.399512826089    0.607683718598
      6   L      18             0.2222899    0.700115468880    0.391957393099

 C         

      7   S      19            71.6168373    0.154328967295
      7   S      20            13.0450963    0.535328142282
      7   S      21             3.5305122    0.444634542185

      8   L      22             2.9412494   -0.099967229187    0.155916274999
      8   L      23             0.6834831    0.399512826089    0.607683718598
      8   L      24             0.2222899    0.700115468880    0.391957393099

 C         

      9   S      25            71.6168373    0.154328967295
      9   S      26            13.0450963    0.535328142282
      9   S      27             3.5305122    0.444634542185

     10   L      28             2.9412494   -0.099967229187    0.155916274999
     10   L      29             0.6834831    0.399512826089    0.607683718598
     10   L      30             0.2222899    0.700115468880    0.391957393099

 C         

     11   S      31            71.6168373    0.154328967295
     11   S      32            13.0450963    0.535328142282
     11   S      33             3.5305122    0.444634542185

     12   L      34             2.9412494   -0.099967229187    0.155916274999
     12   L      35             0.6834831    0.399512826089    0.607683718598
     12   L      36             0.2222899    0.700115468880    0.391957393099

 H         

     13   S      37             3.4252509    0.154328967295
     13   S      38             0.6239137    0.535328142282
     13   S      39             0.1688554    0.444634542185

 H         

     14   S      40             3.4252509    0.154328967295
     14   S      41             0.6239137    0.535328142282
     14   S      42             0.1688554    0.444634542185

 H         

     15   S      43             3.4252509    0.154328967295
     15   S      44             0.6239137    0.535328142282
     15   S      45             0.1688554    0.444634542185

 H         

     16   S      46             3.4252509    0.154328967295
     16   S      47             0.6239137    0.535328142282
     16   S      48             0.1688554    0.444634542185

 H         

     17   S      49             3.4252509    0.154328967295
     17   S      50             0.6239137    0.535328142282
     17   S      51             0.1688554    0.444634542185

 H         

     18   S      52             3.4252509    0.154328967295
     18   S      53             0.6239137    0.535328142282
     18   S      54             0.1688554    0.444634542185

 H         

     19   S      55             3.4252509    0.154328967295
     19   S      56             0.6239137    0.535328142282
     19   S      57             0.1688554    0.444634542185

 H         

     20   S      58             3.4252509    0.154328967295
     20   S      59             0.6239137    0.535328142282
     20   S      60             0.1688554    0.444634542185

 H         

     21   S      61             3.4252509    0.154328967295
     21   S      62             0.6239137    0.535328142282
     21   S      63             0.1688554    0.444634542185

 H         

     22   S      64             3.4252509    0.154328967295
     22   S      65             0.6239137    0.535328142282
     22   S      66             0.1688554    0.444634542185

 B         

     23   S      67            48.7911132    0.154328967295
     23   S      68             8.8873622    0.535328142282
     23   S      69             2.4052670    0.444634542185

     24   L      70             2.2369561   -0.099967229187    0.155916274999
     24   L      71             0.5198205    0.399512826089    0.607683718598
     24   L      72             0.1690618    0.700115468880    0.391957393099

 H         

     25   S      73             3.4252509    0.154328967295
     25   S      74             0.6239137    0.535328142282
     25   S      75             0.1688554    0.444634542185

 H         

     26   S      76             3.4252509    0.154328967295
     26   S      77             0.6239137    0.535328142282
     26   S      78             0.1688554    0.444634542185

 H         

     27   S      79             3.4252509    0.154328967295
     27   S      80             0.6239137    0.535328142282
     27   S      81             0.1688554    0.444634542185

 TOTAL NUMBER OF BASIS SET SHELLS             =   27
 NUMBER OF CARTESIAN GAUSSIAN BASIS FUNCTIONS =   48
 NUMBER OF ELECTRONS                          =   54
 CHARGE OF MOLECULE                           =    0
 SPIN MULTIPLICITY                            =    1
 NUMBER OF OCCUPIED ORBITALS (ALPHA)          =   27
 NUMBER OF OCCUPIED ORBITALS (BETA )          =   27
 TOTAL NUMBER OF ATOMS                        =   20
 THE NUCLEAR REPULSION ENERGY IS      300.8838994675

     $CONTRL OPTIONS
     ---------------
 SCFTYP=RHF          RUNTYP=OPTIMIZE     EXETYP=RUN     
 MPLEVL=       0     CITYP =NONE         CCTYP =NONE         VBTYP =NONE    
 DFTTYP=NONE         TDDFT =NONE    
 MULT  =       1     ICHARG=       0     NZVAR =       1     COORD =UNIQUE  
 PP    =NONE         RELWFN=NONE         LOCAL =NONE         NUMGRD=       F
 ISPHER=      -1     NOSYM =       0     MAXIT =      30     UNITS =ANGS    
 PLTORB=       F     MOLPLT=       F     AIMPAC=       F     FRIEND=        
 NPRINT=       7     IREST =       0     GEOM  =INPUT   
 NORMF =       0     NORMP =       0     ITOL  =      20     ICUT  =       9
 INTTYP=BEST         GRDTYP=BEST         QMTTOL= 1.0E-06

     $SYSTEM OPTIONS
     ---------------
  REPLICATED MEMORY=     1000000 WORDS (ON EVERY NODE).
 DISTRIBUTED MEMDDI=           0 MILLION WORDS IN AGGREGATE,
 MEMDDI DISTRIBUTED OVER   1 PROCESSORS IS           0 WORDS/PROCESSOR.
 TOTAL MEMORY REQUESTED ON EACH PROCESSOR=     1000000 WORDS.
 TIMLIM=      525600.00 MINUTES, OR     365.0 DAYS.
 PARALL= F  BALTYP=  DLB     KDIAG=    0  COREFL= F
 MXSEQ2=     300 MXSEQ3=     150  mem10=         0

          ----------------
          PROPERTIES INPUT
          ----------------

     MOMENTS            FIELD           POTENTIAL          DENSITY
 IEMOM =       1   IEFLD =       0   IEPOT =       0   IEDEN =       0
 WHERE =COMASS     WHERE =NUCLEI     WHERE =NUCLEI     WHERE =NUCLEI  
 OUTPUT=BOTH       OUTPUT=BOTH       OUTPUT=BOTH       OUTPUT=BOTH    
 IEMINT=       0   IEFINT=       0                     IEDINT=       0
                                                       MORB  =       0
          EXTRAPOLATION IN EFFECT
          SOSCF IN EFFECT
 ORBITAL PRINTING OPTION: NPREO=     1    48     2     1

     -------------------------------
     INTEGRAL TRANSFORMATION OPTIONS
     -------------------------------
     NWORD  =            0
     CUTOFF = 1.0E-09     MPTRAN =       0
     DIRTRF =       F     AOINTS =DUP     

          ----------------------
          INTEGRAL INPUT OPTIONS
          ----------------------
 NOPK  =       1 NORDER=       0 SCHWRZ=       T


 -----------------------------------------------
  STATISTICS ON AUTOMATIC COORDINATE GENERATION 
 -----------------------------------------------
  NUMBER OF USER SPECIFIED BONDS                             1
  NUMBER OF BONDS                                           20
  NUMBER OF ANGLES                                          39
  NUMBER OF TORSIONS                                        54
  NUMBER OF EXTRA COORD.                                     0
  NUMBER OF EXTRA COORD. FOR CONSTRAINTS                     0
  NUMBER OF CONSTRAINED COORD.                               1

  TOTAL NUMBER OF PRIMITIVES                               113
 -----------------------------------------------

   --- ENCODED Z MATRIX ---
 COORD  TYPE   I   J   K   L   M   N
    1      1    4  17
    2      1    1   8
    3      1    1   4
    4      1    1   2
    5      1    1   7
    6      1    2   9
    7      1    2   3
    8      1    2  10
    9      1    3  12
   10      1    3  11
   11      1    3   5
   12      1    4  13
   13      1    4   5
   14      1    5   6
   15      1    6  15
   16      1    6  14
   17      1    6  16
   18      1   17  20
   19      1   17  19
   20      1   17  18
   21      2    1   2   3
   22      2    1   2   9
   23      2    1   4   5
   24      2    1   4  17
   25      2    1   4  13
   26      2    1   2  10
   27      2    2   3   5
   28      2    2   3  12
   29      2    2   1   4
   30      2    2   1   7
   31      2    2   3  11
   32      2    2   1   8
   33      2    3   2   9
   34      2    3   5   4
   35      2    3   5   6
   36      2    3   2  10
   37      2    4   5   6
   38      2    4  17  19
   39      2    4  17  20
   40      2    4   1   7
   41      2    4  17  18
   42      2    4   1   8
   43      2    5   6  15
   44      2    5   4  17
   45      2    5   4  13
   46      2    5   3  11
   47      2    5   3  12
   48      2    5   6  16
   49      2    5   6  14
   50      2    7   1   8
   51      2    9   2  10
   52      2   11   3  12
   53      2   13   4  17
   54      2   14   6  16
   55      2   14   6  15
   56      2   15   6  16
   57      2   18  17  19
   58      2   18  17  20
   59      2   19  17  20
   60      3    1   4   5   6
   61      3    1   4   5   3
   62      3    1   2   3   5
   63      3    1   2   3  11
   64      3    1   4  17  18
   65      3    1   4  17  19
   66      3    1   2   3  12
   67      3    1   4  17  20
   68      3    2   3   5   6
   69      3    2   3   5   4
   70      3    2   1   4   5
   71      3    2   1   4  13
   72      3    2   1   4  17
   73      3    3   5   6  14
   74      3    3   5   6  15
   75      3    3   5   4  17
   76      3    3   5   4  13
   77      3    3   2   1   7
   78      3    3   2   1   4
   79      3    3   5   6  16
   80      3    3   2   1   8
   81      3    4   5   3  11
   82      3    4   5   3  12
   83      3    4   1   2  10
   84      3    4   5   6  16
   85      3    4   5   6  14
   86      3    4   5   6  15
   87      3    4   1   2   9
   88      3    5   3   2  10
   89      3    5   3   2   9
   90      3    5   4   1   7
   91      3    5   4  17  18
   92      3    5   4   1   8
   93      3    5   4  17  20
   94      3    5   4  17  19
   95      3    6   5   3  11
   96      3    6   5   3  12
   97      3    6   5   4  17
   98      3    6   5   4  13
   99      3    7   1   2  10
  100      3    7   1   4  13
  101      3    7   1   2   9
  102      3    7   1   4  17
  103      3    8   1   4  17
  104      3    8   1   2   9
  105      3    8   1   2  10
  106      3    8   1   4  13
  107      3    9   2   3  11
  108      3    9   2   3  12
  109      3   10   2   3  11
  110      3   10   2   3  12
  111      3   13   4  17  18
  112      3   13   4  17  20
  113      3   13   4  17  19

          INDEP./SYM. INTERNAL COORDINATES
          --------------------------------
 CRD  1=   1.0000 (  1)
 CRD  2=  -0.1812 (  3)  0.1259 ( 11) -0.1255 ( 13)  0.1158 ( 14)  0.1528 ( 23)
          -0.3747 ( 24) -0.1068 ( 34)  0.4337 ( 35) -0.3252 ( 37) -0.1453 ( 38)
          -0.1186 ( 41) -0.1238 ( 45)  0.1691 ( 49)  0.2284 ( 53) -0.3362 ( 75)
          -0.2903 ( 97)
 CRD  3=  -0.1662 ( 11) -0.1026 ( 21)  0.1185 ( 23)  0.1520 ( 27) -0.1660 ( 34)
          -0.2031 ( 35)  0.3749 ( 37) -0.2928 ( 41) -0.3205 ( 44) -0.1050 ( 46)
           0.1345 ( 48) -0.1344 ( 49)  0.2267 ( 53)  0.2988 ( 72) -0.1491 ( 75)
          -0.1334 ( 90) -0.1320 ( 92) -0.1014 ( 97)  0.2100 (102)  0.2113 (103)
 CRD  4=  -0.1754 (  3) -0.2660 ( 11) -0.1957 ( 13) -0.4477 ( 14)  0.1094 ( 21)
          -0.2220 ( 27)  0.1595 ( 28) -0.1320 ( 29)  0.1002 ( 32)  0.2294 ( 34)
          -0.1596 ( 35)  0.1094 ( 39) -0.2688 ( 48) -0.1408 ( 49)  0.1287 ( 54)
           0.1157 ( 55)  0.1182 ( 56) -0.1740 ( 60) -0.1274 ( 61)  0.1416 ( 68)
           0.1005 ( 69) -0.1449 ( 75) -0.1916 ( 97) -0.1002 ( 98)
 CRD  5=  -0.1393 (  3) -0.1901 ( 11) -0.1339 ( 13) -0.2879 ( 14) -0.1096 ( 22)
          -0.1620 ( 24)  0.1096 ( 30)  0.1256 ( 31) -0.3442 ( 38) -0.2539 ( 39)
          -0.1106 ( 41) -0.2402 ( 43)  0.1055 ( 48) -0.1001 ( 49)  0.1624 ( 57)
           0.1493 ( 58)  0.1779 ( 59)  0.2225 ( 60)  0.1971 ( 61) -0.2021 ( 68)
          -0.1710 ( 69) -0.1471 ( 70) -0.1411 ( 72) -0.1135 ( 92) -0.1046 ( 96)
          -0.1075 (103)
 CRD  6=  -0.1499 ( 13) -0.2581 ( 14) -0.2320 ( 21) -0.1411 ( 23)  0.1229 ( 26)
           0.1887 ( 27)  0.2133 ( 29) -0.1069 ( 32)  0.5311 ( 39) -0.1641 ( 40)
          -0.2406 ( 43) -0.1537 ( 47)  0.1207 ( 48)  0.1237 ( 55) -0.1631 ( 58)
          -0.1624 ( 59)  0.1062 ( 62) -0.1159 ( 83)  0.1204 ( 89)
 CRD  7=   0.1689 (  4)  0.1023 ( 10)  0.2261 ( 13)  0.1618 ( 21) -0.1179 ( 27)
           0.1076 ( 34) -0.1017 ( 36)  0.5104 ( 38)  0.1025 ( 39) -0.5779 ( 41)
          -0.1685 ( 43)  0.1118 ( 49)  0.1196 ( 58) -0.1581 ( 59)
 CRD  8=  -0.2265 (  3) -0.1141 ( 18)  0.5072 ( 38) -0.4705 ( 39) -0.1199 ( 40)
           0.3658 ( 41) -0.2106 ( 43) -0.1120 ( 47)  0.1444 ( 48) -0.2606 ( 57)
 CRD  9=  -0.1665 (  2) -0.3707 (  3) -0.2235 (  4) -0.1946 (  7)  0.2493 ( 11)
          -0.1194 ( 14) -0.1142 ( 21) -0.1084 ( 23)  0.2608 ( 29) -0.1034 ( 31)
          -0.1357 ( 39) -0.2942 ( 41) -0.1993 ( 42)  0.1517 ( 43)  0.1723 ( 45)
           0.1106 ( 46) -0.1565 ( 48) -0.1020 ( 49)  0.1316 ( 50)  0.1388 ( 58)
           0.1011 ( 78)  0.1741 ( 91)  0.1645 ( 93)  0.1700 ( 94)
 CRD 10=   0.2421 (  3)  0.1682 (  4) -0.1134 ( 11) -0.1635 ( 13) -0.1590 ( 21)
           0.1756 ( 25)  0.1431 ( 26)  0.2095 ( 27)  0.1332 ( 38) -0.2429 ( 39)
          -0.1762 ( 41)  0.3960 ( 43) -0.1139 ( 45) -0.2934 ( 48)  0.1185 ( 54)
          -0.1069 ( 55)  0.1285 ( 58) -0.1409 ( 64) -0.1587 ( 65) -0.1582 ( 67)
           0.1154 ( 73) -0.1119 ( 83)  0.1492 ( 85) -0.1044 ( 91) -0.1217 ( 93)
          -0.1222 ( 94)
 CRD 11=  -0.2168 (  4) -0.3083 ( 11)  0.1026 ( 13)  0.1800 ( 16) -0.1197 ( 17)
           0.1156 ( 27) -0.2301 ( 43) -0.1054 ( 46) -0.4185 ( 48)  0.5820 ( 49)
          -0.1258 ( 55)  0.2532 ( 56)
 CRD 12=   0.5950 (  7)  0.1413 (  8)  0.1453 ( 10) -0.1296 ( 21) -0.1008 ( 22)
           0.1104 ( 29)  0.1865 ( 31)  0.1769 ( 33)  0.1183 ( 36) -0.1023 ( 40)
           0.2178 ( 43) -0.2226 ( 48) -0.1005 ( 51)  0.1174 ( 54)  0.1022 ( 63)
          -0.1048 ( 70) -0.1092 ( 79) -0.1012 ( 82) -0.1099 ( 84) -0.1003 ( 86)
          -0.1063 ( 87) -0.1003 ( 96)  0.1086 ( 99) -0.1235 (104)
 CRD 13=   0.1370 (  3) -0.6055 (  4) -0.1712 ( 13) -0.1374 ( 22)  0.1024 ( 25)
          -0.1612 ( 26) -0.2091 ( 32)  0.1787 ( 38)  0.1424 ( 42)  0.1009 ( 48)
          -0.1954 ( 49) -0.1087 ( 89)  0.1481 ( 92) -0.1363 (100) -0.1215 (101)
          -0.1091 (102)  0.1064 (103)  0.1319 (105) -0.1166 (108)  0.1020 (109)
 CRD 14=  -0.2848 (  7) -0.1044 (  8) -0.1465 ( 22)  0.1635 ( 26) -0.2365 ( 28)
           0.1351 ( 30)  0.1340 ( 33) -0.2644 ( 36)  0.1216 ( 38)  0.1238 ( 39)
          -0.1009 ( 40)  0.1979 ( 41)  0.1493 ( 43)  0.2216 ( 47) -0.1373 ( 48)
           0.1069 ( 53) -0.1156 ( 57) -0.1164 ( 58)  0.1042 ( 60)  0.1381 ( 61)
           0.1460 ( 66) -0.1572 ( 73) -0.1781 ( 74)  0.1145 ( 76)  0.1863 ( 77)
          -0.1713 ( 79)  0.1337 ( 80)  0.1165 ( 82) -0.1293 ( 84) -0.1152 ( 85)
          -0.1361 ( 86) -0.1173 ( 88) -0.1020 ( 89)  0.1527 ( 96)
 CRD 15=  -0.1729 (  2)  0.1342 (  5)  0.1268 (  6)  0.1265 (  9) -0.1650 ( 10)
          -0.1862 ( 13)  0.1250 ( 14) -0.1071 ( 15)  0.1009 ( 17) -0.1976 ( 21)
           0.1190 ( 26) -0.1171 ( 41) -0.1473 ( 42) -0.1408 ( 43) -0.1785 ( 46)
           0.1445 ( 47)  0.2023 ( 48) -0.1551 ( 54) -0.1465 ( 62)  0.1533 ( 68)
           0.1642 ( 69) -0.1153 ( 70) -0.1660 ( 72) -0.1083 ( 73) -0.1300 ( 74)
          -0.1015 ( 76)  0.1397 ( 78) -0.1229 ( 79)  0.1267 ( 81)  0.1288 ( 82)
           0.1342 ( 83) -0.1354 ( 84) -0.1208 ( 85) -0.1425 ( 86)  0.1172 ( 87)
          -0.1835 ( 88) -0.1644 ( 89)  0.1157 ( 95)  0.1178 ( 96) -0.1287 (102)
          -0.1422 (103)
 CRD 16=   0.2195 (  3)  0.1798 ( 11)  0.3853 ( 12)  0.1342 ( 13) -0.1277 ( 23)
           0.1271 ( 25) -0.1810 ( 30) -0.1415 ( 31) -0.1137 ( 38) -0.1954 ( 39)
           0.1436 ( 46)  0.1069 ( 59) -0.1271 ( 64) -0.1248 ( 65) -0.1256 ( 67)
           0.1101 ( 71) -0.2115 ( 73) -0.2107 ( 74) -0.1296 ( 76) -0.2046 ( 79)
          -0.2345 ( 84) -0.2414 ( 85) -0.2406 ( 86) -0.1307 ( 90) -0.1228 ( 95)
          -0.1087 ( 98)
 CRD 17=   0.1501 (  5) -0.2498 (  9) -0.1547 ( 11) -0.3357 ( 12)  0.1739 ( 22)
           0.1178 ( 23) -0.1175 ( 26) -0.1903 ( 31) -0.1855 ( 33)  0.1364 ( 36)
           0.1213 ( 39)  0.1049 ( 43) -0.1659 ( 47) -0.1220 ( 66) -0.1847 ( 73)
          -0.1496 ( 74)  0.1041 ( 75) -0.1492 ( 79) -0.1241 ( 80) -0.1734 ( 81)
          -0.1150 ( 82) -0.1404 ( 84) -0.1760 ( 85) -0.1409 ( 86)  0.1126 ( 87)
           0.1210 ( 89) -0.1700 ( 95) -0.1115 ( 96)  0.1031 ( 97) -0.1129 (103)
 CRD 18=   0.2829 (  5)  0.3870 (  6) -0.3072 (  8)  0.1820 ( 10)  0.2034 ( 22)
          -0.2107 ( 26) -0.1363 ( 62) -0.2538 ( 63) -0.2152 ( 66) -0.1193 ( 70)
           0.1160 ( 77)  0.1491 ( 78)  0.1002 ( 79)  0.1870 ( 80)  0.1541 ( 81)
           0.1524 ( 82)  0.1110 ( 88)  0.1096 ( 89)  0.1131 ( 95)  0.1114 ( 96)
 CRD 19=   0.1334 (  3)  0.1289 (  5) -0.3264 (  6)  0.1849 (  8) -0.2313 (  9)
           0.1252 ( 10)  0.2192 ( 12) -0.2582 ( 28) -0.1165 ( 30)  0.2090 ( 31)
           0.1174 ( 32) -0.1807 ( 33)  0.1556 ( 36)  0.2078 ( 40) -0.1712 ( 42)
          -0.1656 ( 46)  0.1097 ( 47)  0.1057 ( 63) -0.2042 ( 77) -0.1773 ( 80)
           0.1278 ( 81)  0.1585 ( 82)  0.1475 ( 83)  0.1617 ( 87)  0.1096 ( 95)
           0.1403 ( 96)
 CRD 20=  -0.2423 (  3) -0.2471 (  5) -0.1298 (  8) -0.2037 (  9)  0.1995 ( 10)
          -0.1203 ( 12) -0.1652 ( 15) -0.1687 ( 16) -0.1841 ( 17) -0.1655 ( 30)
           0.1617 ( 31)  0.1193 ( 32)  0.1658 ( 43)  0.1256 ( 49) -0.1063 ( 54)
          -0.1555 ( 55) -0.1263 ( 56) -0.1487 ( 64) -0.1664 ( 65) -0.1593 ( 67)
           0.1153 ( 71)  0.1447 ( 81)  0.1262 ( 82)  0.1194 ( 88) -0.1354 ( 90)
          -0.1088 ( 91) -0.1125 ( 92) -0.1193 ( 93) -0.1264 ( 94) -0.1116 (102)
          -0.1597 (111) -0.1702 (112) -0.1774 (113)
 CRD 21=  -0.2659 (  2)  0.2274 (  5)  0.2865 ( 12) -0.3252 ( 15) -0.3545 ( 16)
          -0.3899 ( 17) -0.1032 ( 32)  0.1530 ( 43)  0.1355 ( 48)  0.1798 ( 49)
          -0.1499 ( 54) -0.1886 ( 55) -0.1378 ( 56) -0.1070 ( 71) -0.1114 ( 82)
           0.1142 ( 83)  0.1024 ( 87)  0.1177 (102)  0.1246 (103)
 CRD 22=   0.2047 (  9) -0.1327 ( 10)  0.1266 ( 15) -0.4192 ( 18) -0.4124 ( 19)
          -0.4427 ( 20)  0.1110 ( 28) -0.1238 ( 30)  0.1360 ( 32)  0.1032 ( 39)
           0.1052 ( 41) -0.1269 ( 82) -0.1537 ( 90) -0.1477 ( 92) -0.1057 ( 95)
          -0.1418 ( 96) -0.1113 (102) -0.1053 (103)
 CRD 23=   0.4097 (  2)  0.1987 (  3) -0.1467 ( 12) -0.1900 ( 14) -0.2860 ( 15)
          -0.2663 ( 16) -0.2295 ( 17) -0.1067 ( 20)  0.1667 ( 64)  0.1792 ( 65)
           0.1982 ( 67) -0.1042 ( 76)  0.1117 ( 91)  0.1432 ( 93)  0.1242 ( 94)
          -0.1371 (102) -0.1411 (103)  0.1979 (111)  0.2294 (112)  0.2104 (113)
 CRD 24=   0.1649 (  9) -0.1015 ( 10)  0.3352 ( 18)  0.3699 ( 19)  0.3267 ( 20)
          -0.1455 ( 30)  0.1660 ( 32)  0.1620 ( 40) -0.1388 ( 42)  0.1044 ( 53)
           0.1275 ( 54)  0.1477 ( 79)  0.1223 ( 84) -0.1777 ( 90) -0.1662 ( 92)
          -0.1186 ( 96)  0.1119 ( 98) -0.1157 ( 99) -0.2060 (100) -0.1213 (101)
          -0.1224 (102) -0.1109 (103) -0.1163 (104) -0.1106 (105) -0.1944 (106)
 CRD 25=  -0.2635 ( 15)  0.5795 ( 16) -0.3208 ( 17)  0.1681 ( 54)  0.2392 ( 55)
          -0.4089 ( 56) -0.2531 ( 74)  0.1994 ( 79)  0.2041 ( 84) -0.2484 ( 86)
 CRD 26=  -0.5283 ( 15)  0.4988 ( 17)  0.3597 ( 54) -0.3360 ( 55) -0.2690 ( 73)
           0.1105 ( 74)  0.1388 ( 79)  0.1309 ( 84) -0.2768 ( 85)  0.1027 ( 86)
 CRD 27=   0.5870 ( 18) -0.4672 ( 19) -0.1083 ( 20) -0.3464 ( 57)  0.2768 ( 58)
          -0.2231 ( 64)  0.1380 ( 65) -0.2204 ( 91)  0.1408 ( 94) -0.2307 (111)
           0.1304 (113)
 CRD 28=  -0.2024 ( 18) -0.3983 ( 19)  0.6050 ( 20)  0.1228 ( 57)  0.2399 ( 58)
          -0.3644 ( 59) -0.1691 ( 65)  0.2103 ( 67)  0.2069 ( 93) -0.1724 ( 94)
           0.2047 (112) -0.1747 (113)
 CRD 29=   0.1198 (  2) -0.5771 (  9) -0.6329 ( 10)  0.1105 ( 31) -0.2614 ( 52)
           0.1348 ( 81) -0.1087 ( 82)  0.1288 ( 95) -0.1147 ( 96)  0.1021 (108)
           0.1190 (110)
 CRD 30=   0.3370 (  2)  0.4327 (  5) -0.4818 (  6) -0.4787 (  8)  0.1571 ( 50)
          -0.1826 ( 51)  0.1527 ( 99) -0.1368 (104)
 CRD 31=  -0.4578 (  2) -0.4357 (  5) -0.3051 (  6) -0.4460 (  8) -0.1995 ( 50)
          -0.1604 ( 51)  0.1013 (100) -0.1525 (101)  0.1318 (105)  0.1092 (108)
 CRD 32=   0.2322 (  2) -0.2559 (  5)  0.3584 (  9) -0.2754 ( 10)  0.1539 ( 22)
          -0.1574 ( 26) -0.1598 ( 33)  0.1474 ( 36) -0.1147 ( 46)  0.1200 ( 47)
           0.1207 ( 63)  0.1239 ( 66)  0.1115 ( 83)  0.1328 ( 87)  0.1049 ( 88)
           0.1147 ( 89)  0.1958 ( 99)  0.2171 (101)  0.2037 (104)  0.1824 (105)
           0.2367 (107)  0.2398 (108)  0.2268 (109)  0.2300 (110)
 CRD 33=   0.1595 (  2) -0.1791 (  5) -0.3705 (  6)  0.2852 (  8) -0.1311 (  9)
           0.1023 ( 10)  0.1022 ( 42)  0.1108 ( 46) -0.1854 ( 63) -0.1578 ( 66)
           0.1630 ( 77)  0.1052 ( 78)  0.1876 ( 80)  0.1605 ( 83)  0.1411 ( 87)
          -0.1341 ( 88) -0.1229 ( 89)  0.2183 ( 99)  0.1989 (101)  0.2234 (104)
           0.2429 (105) -0.2123 (107) -0.1846 (108) -0.2234 (109) -0.1958 (110)
 CRD 34=   0.1009 (  3)  0.1297 (  7) -0.1406 ( 10)  0.1326 ( 11) -0.2161 ( 12)
           0.3032 ( 13) -0.2066 ( 14) -0.2458 ( 15) -0.2444 ( 16) -0.1538 ( 17)
          -0.1666 ( 25) -0.1244 ( 28) -0.1943 ( 34)  0.1242 ( 35) -0.1654 ( 43)
          -0.1376 ( 48) -0.1832 ( 49)  0.1408 ( 54)  0.2038 ( 55)  0.1497 ( 56)
          -0.1235 ( 91) -0.1347 ( 93) -0.1301 ( 94) -0.2026 (111) -0.2138 (112)
          -0.2093 (113)
 CRD 35=  -0.3944 ( 11)  0.4683 ( 12)  0.3151 ( 13) -0.2072 ( 16)  0.1514 ( 17)
           0.2383 ( 35) -0.1953 ( 37)  0.1028 ( 45) -0.1384 ( 46) -0.1526 ( 49)
           0.1696 ( 52) -0.1331 ( 56) -0.1139 ( 66)  0.1003 (100) -0.1466 (108)
          -0.1103 (110)
 CRD 36=   0.2096 (  2) -0.2484 (  5)  0.1763 (  6) -0.1065 (  8) -0.2082 (  9)
           0.1315 ( 10) -0.1198 ( 18) -0.1033 ( 19) -0.1014 ( 38) -0.1309 ( 39)
          -0.1435 ( 41)  0.2406 ( 53) -0.3348 ( 71)  0.3211 ( 76)  0.2545 ( 98)
          -0.3265 (100) -0.2678 (106)
 CRD 37=  -0.1397 (  2)  0.1193 (  5) -0.1796 (  6)  0.1134 (  8)  0.2382 (  9)
          -0.1733 ( 10) -0.2270 ( 12)  0.2305 ( 13)  0.2405 ( 15) -0.1256 ( 17)
          -0.1211 ( 23)  0.1493 ( 31) -0.1518 ( 37)  0.1469 ( 54) -0.1033 ( 55)
          -0.1082 ( 61) -0.1020 ( 66) -0.1249 ( 71) -0.1086 ( 73)  0.2371 ( 81)
           0.1005 ( 82) -0.2562 ( 85) -0.1288 ( 86)  0.1192 ( 95)  0.2107 ( 98)
          -0.1891 (100) -0.1399 (106)
 CRD 38=  -0.1896 (  8)  0.1150 ( 10)  0.1095 ( 11)  0.1207 ( 12)  0.4481 ( 14)
          -0.1453 ( 15) -0.1685 ( 16) -0.2707 ( 17)  0.1143 ( 28)  0.1079 ( 31)
          -0.1040 ( 33) -0.1003 ( 40) -0.2196 ( 43) -0.1153 ( 46) -0.2008 ( 48)
          -0.1935 ( 49)  0.2417 ( 54)  0.1546 ( 55)  0.2281 ( 56)  0.1176 ( 81)
           0.1148 ( 87) -0.1171 ( 96)  0.1953 (101) -0.1085 (105)
 CRD 39=   0.1468 (  2) -0.1025 (  7)  0.1132 (  9) -0.2099 ( 10)  0.1684 ( 11)
           0.1442 ( 12) -0.2225 ( 13)  0.1597 ( 16) -0.1243 ( 17) -0.1624 ( 22)
          -0.1998 ( 26)  0.1718 ( 30)  0.1481 ( 32)  0.1562 ( 36) -0.1299 ( 50)
          -0.1219 ( 55)  0.1616 ( 82) -0.1059 ( 85)  0.1773 ( 88) -0.1235 ( 89)
           0.2384 ( 90) -0.1080 ( 94)  0.1083 ( 96)  0.1669 (100)  0.1671 (102)
          -0.1236 (103) -0.1235 (104) -0.1238 (106) -0.2099 (107) -0.2337 (108)
 CRD 40=   0.2945 (  3) -0.2238 (  4) -0.1487 (  8)  0.1491 ( 10)  0.1367 ( 11)
          -0.3550 ( 14)  0.1257 ( 15) -0.1665 ( 25)  0.1260 ( 26) -0.1647 ( 33)
          -0.1098 ( 34) -0.1214 ( 36) -0.1155 ( 40)  0.1267 ( 45) -0.1367 ( 46)
           0.1129 ( 49)  0.1070 ( 51) -0.1134 ( 52) -0.1140 ( 55) -0.1100 ( 56)
           0.1243 ( 81) -0.1220 ( 82) -0.1282 ( 83)  0.1385 ( 87) -0.1114 ( 88)
           0.1144 ( 95) -0.1319 ( 96)  0.2298 (101)  0.1296 (104) -0.1371 (105)
          -0.1811 (111) -0.1173 (112) -0.1641 (113)
 CRD 41=  -0.1803 (  2) -0.1809 (  4) -0.1587 (  6)  0.2450 (  7)  0.1331 (  8)
          -0.1705 ( 11)  0.1825 ( 12) -0.1305 ( 15)  0.1643 ( 18) -0.1388 ( 20)
           0.1243 ( 22)  0.1066 ( 24)  0.1046 ( 32) -0.1863 ( 40) -0.1642 ( 45)
           0.1775 ( 46)  0.1395 ( 57) -0.1665 ( 63) -0.1081 ( 71)  0.1421 ( 77)
          -0.1753 ( 83)  0.1268 ( 89) -0.1600 ( 94) -0.1372 (100)  0.1369 (101)
          -0.1715 (105) -0.2005 (106)  0.1878 (108) -0.1055 (109)  0.1156 (110)
           0.1516 (111)  0.1208 (112)
 CRD 42=   0.1272 (  2) -0.1372 (  3)  0.1573 (  8)  0.1146 ( 10) -0.1476 ( 11)
           0.1912 ( 12) -0.1836 ( 13)  0.2054 ( 15) -0.2815 ( 17)  0.1596 ( 19)
          -0.1820 ( 20)  0.1209 ( 22) -0.1066 ( 25) -0.1001 ( 32)  0.1078 ( 40)
           0.1364 ( 47) -0.1581 ( 51)  0.1716 ( 54) -0.1684 ( 55)  0.1192 ( 58)
          -0.1380 ( 59)  0.1453 ( 67) -0.1473 ( 73)  0.1336 ( 74) -0.1077 ( 77)
          -0.2039 ( 85) -0.1163 ( 88)  0.1319 ( 92) -0.1046 ( 99) -0.1666 (101)
           0.1276 (106)  0.2115 (108) -0.1385 (109) -0.1072 (111) -0.1229 (113)
 CRD 43=   0.1547 (  5) -0.1540 (  6) -0.1571 (  7)  0.1177 (  8) -0.2028 ( 13)
           0.1937 ( 14) -0.2422 ( 15)  0.1724 ( 17)  0.2139 ( 19) -0.1847 ( 20)
          -0.1405 ( 25)  0.1150 ( 28)  0.1445 ( 42)  0.1416 ( 45) -0.1168 ( 47)
          -0.1102 ( 48) -0.1379 ( 50) -0.1061 ( 54)  0.1835 ( 55)  0.1658 ( 58)
          -0.1358 ( 59)  0.1573 ( 67) -0.1240 ( 74)  0.1214 ( 76) -0.1211 ( 79)
           0.1642 ( 80) -0.1145 ( 82) -0.1081 ( 83)  0.1272 ( 85)  0.1427 ( 88)
           0.1765 ( 93) -0.1429 ( 99) -0.1123 (101)  0.1159 (109) -0.1637 (111)
          -0.1399 (113)
 CRD 44=  -0.1197 (  3) -0.1297 (  7)  0.1346 ( 11) -0.1193 ( 14)  0.4326 ( 18)
          -0.2920 ( 19) -0.1360 ( 20) -0.1131 ( 24) -0.1090 ( 39)  0.3257 ( 57)
          -0.2248 ( 58) -0.1058 ( 59)  0.2397 ( 64) -0.1598 ( 65)  0.2105 ( 91)
          -0.1891 ( 94)  0.2209 (111) -0.1787 (113)
 CRD 45=  -0.1063 (  4)  0.1130 ( 10) -0.1673 ( 13)  0.1935 ( 15) -0.3997 ( 16)
           0.1673 ( 17) -0.1343 ( 19) -0.1597 ( 35)  0.1304 ( 37) -0.1230 ( 43)
          -0.1131 ( 48)  0.1915 ( 49) -0.1125 ( 52)  0.1597 ( 54)  0.1418 ( 55)
          -0.2571 ( 56) -0.2166 ( 74)  0.2470 ( 79)  0.2372 ( 84) -0.2264 ( 86)
          -0.1096 (103)  0.1390 (110) -0.1032 (112)
 CRD 46=  -0.1493 (  4)  0.1149 (  8) -0.1168 ( 11) -0.1098 ( 13) -0.1142 ( 15)
           0.1747 ( 16) -0.2567 ( 19)  0.3449 ( 20)  0.1027 ( 35) -0.1225 ( 37)
          -0.1219 ( 41) -0.1153 ( 49) -0.1249 ( 50)  0.1465 ( 56) -0.1893 ( 58)
           0.2647 ( 59)  0.1769 ( 65) -0.1526 ( 67) -0.1119 ( 72) -0.1356 ( 79)
          -0.1412 ( 84) -0.1680 ( 93)  0.1616 ( 94) -0.1017 ( 99) -0.1658 (103)
           0.1035 (108) -0.2572 (112)
 CRD 47=  -0.1192 (  2)  0.2046 (  3)  0.1745 (  5)  0.1803 (  7) -0.2030 (  9)
          -0.1785 ( 12)  0.1799 ( 14) -0.1251 ( 17)  0.1365 ( 18) -0.1323 ( 23)
          -0.1343 ( 31)  0.1009 ( 32)  0.1836 ( 34) -0.1729 ( 37)  0.2157 ( 45)
           0.1521 ( 52)  0.1043 ( 57)  0.1376 ( 63)  0.1116 ( 74) -0.1552 ( 75)
           0.1032 ( 80) -0.1752 ( 81)  0.1108 ( 86)  0.2305 ( 91) -0.1425 ( 92)
           0.1684 ( 93) -0.1579 ( 95) -0.1619 ( 97)  0.1126 (104)  0.1226 (109)
          -0.1554 (113)
 CRD 48=   0.3300 (  7) -0.2802 ( 10)  0.1116 ( 11) -0.2235 ( 13) -0.1139 ( 25)
          -0.1183 ( 27) -0.1445 ( 28) -0.1500 ( 32) -0.1570 ( 33)  0.1093 ( 34)
          -0.1888 ( 35) -0.1285 ( 36)  0.1319 ( 46) -0.1111 ( 47)  0.1214 ( 51)
           0.1548 ( 52) -0.1307 ( 66) -0.1221 ( 72)  0.1704 ( 82) -0.1346 ( 83)
           0.1351 ( 87)  0.1091 ( 89)  0.1060 ( 92)  0.1814 ( 96) -0.1882 ( 99)
          -0.1287 (102)  0.1299 (104) -0.1398 (105)  0.1450 (106) -0.1129 (108)
          -0.1599 (110) -0.1033 (112)
 CRD 49=  -0.2624 (  3)  0.2110 (  5) -0.1829 (  9)  0.2821 ( 11)  0.1547 ( 12)
          -0.1286 ( 14)  0.1211 ( 23)  0.1418 ( 24) -0.1241 ( 34)  0.1217 ( 37)
           0.1395 ( 42) -0.1717 ( 45) -0.1320 ( 46) -0.1365 ( 50)  0.1586 ( 52)
          -0.1169 ( 60) -0.1229 ( 61)  0.2110 ( 63)  0.1007 ( 70)  0.2125 ( 80)
          -0.1571 ( 91) -0.1461 ( 93) -0.1263 (103)  0.1536 (104)  0.1477 (105)
          -0.1880 (106)  0.2108 (107)  0.1752 (109)
 CRD 50=   0.3471 (  4) -0.1765 (  6) -0.1425 (  8)  0.1590 ( 10) -0.1067 ( 11)
          -0.1692 ( 21)  0.1360 ( 27) -0.1422 ( 31)  0.1077 ( 42)  0.2479 ( 51)
          -0.1084 ( 52)  0.1362 ( 66)  0.1614 ( 68) -0.1024 ( 73) -0.1377 ( 83)
           0.1821 ( 88) -0.2025 ( 89) -0.1192 ( 99) -0.1523 (102)  0.1079 (104)
          -0.2150 (107)  0.1695 (109)  0.3511 (110)
 CRD 51=   0.1466 (  2) -0.1987 (  3)  0.1175 (  6)  0.1582 (  7) -0.2184 (  8)
          -0.1497 ( 11) -0.1349 ( 21)  0.1704 ( 26) -0.1084 ( 28)  0.1772 ( 29)
          -0.1524 ( 33) -0.1926 ( 50)  0.1032 ( 62)  0.1966 ( 66) -0.1226 ( 68)
           0.1326 ( 73) -0.2592 ( 77) -0.1011 ( 84)  0.1626 ( 87) -0.1058 ( 89)
           0.1026 ( 90)  0.1224 ( 97) -0.1482 ( 99)  0.1406 (102)  0.2998 (104)
           0.1494 (105) -0.1041 (106) -0.2160 (107) -0.1732 (109)
 CRD 52=   0.2206 (  2) -0.1536 (  4) -0.1678 (  6)  0.1010 (  7) -0.1053 ( 12)
           0.2003 ( 13)  0.1242 ( 22) -0.1209 ( 23)  0.1785 ( 25)  0.1258 ( 29)
           0.1849 ( 30) -0.1342 ( 36) -0.1296 ( 42) -0.1372 ( 50)  0.1076 ( 61)
          -0.1479 ( 64) -0.1509 ( 65) -0.1030 ( 67)  0.1172 ( 68) -0.1837 ( 70)
          -0.1592 ( 71) -0.1198 ( 73)  0.1633 ( 78)  0.1075 ( 84)  0.1369 ( 86)
           0.1431 ( 87)  0.1131 ( 90) -0.1122 ( 92) -0.1650 ( 97) -0.1343 ( 98)
          -0.2731 ( 99)  0.1376 (100)  0.2047 (102) -0.1808 (105)  0.1275 (109)
 CRD 53=   0.1227 (  5)  0.1270 (  6) -0.1079 (  7)  0.1531 (  9)  0.1006 ( 31)
          -0.1112 ( 35) -0.1193 ( 47) -0.1813 ( 60)  0.1055 ( 61)  0.1983 ( 62)
          -0.2032 ( 69) -0.2621 ( 73) -0.1439 ( 74)  0.1238 ( 76) -0.1589 ( 78)
          -0.1654 ( 79) -0.1119 ( 82)  0.1544 ( 84)  0.1759 ( 86)  0.2949 ( 95)
           0.1638 ( 96) -0.2163 ( 97) -0.1629 ( 98)  0.1111 ( 99) -0.1262 (103)
           0.1708 (105) -0.1144 (106) -0.1057 (107) -0.1951 (109) -0.1099 (110)
 CRD 54=   0.2450 ( 13) -0.2855 ( 24) -0.2967 ( 35)  0.3475 ( 37)  0.1124 ( 39)
           0.1583 ( 43)  0.4016 ( 44) -0.1083 ( 61)  0.1104 ( 70) -0.1920 ( 72)
           0.1222 ( 73) -0.2699 ( 75) -0.1318 ( 84)  0.1410 ( 90)  0.1077 ( 92)
          -0.1130 ( 95) -0.1726 ( 97)  0.1334 ( 98) -0.1614 (102) -0.1948 (103)

 THE DETERMINANT OF THE G MATRIX IS 10**(   -16)


                     --------------------
                     INTERNAL COORDINATES
                     --------------------

                 - - ATOMS - -         COORDINATE      COORDINATE
 NO.   TYPE    I  J  K  L  M  N        (BOHR,RAD)       (ANG,DEG)
 ----------------------------------------------------------------
   1 STRETCH   4 17                     4.2184631       2.2323147
   2 STRETCH   1  8                     2.0981423       1.1102892
   3 STRETCH   1  4                     2.8641226       1.5156285
   4 STRETCH   1  2                     2.8863856       1.5274096
   5 STRETCH   1  7                     2.1007589       1.1116738
   6 STRETCH   2  9                     2.1084437       1.1157404
   7 STRETCH   2  3                     2.8711335       1.5193385
   8 STRETCH   2 10                     2.0985509       1.1105054
   9 STRETCH   3 12                     2.1042703       1.1135320
  10 STRETCH   3 11                     2.0987038       1.1105863
  11 STRETCH   3  5                     2.8234798       1.4941213
  12 STRETCH   4 13                     2.0728003       1.0968788
  13 STRETCH   4  5                     2.5458818       1.3472227
  14 STRETCH   5  6                     2.8313188       1.4982695
  15 STRETCH   6 15                     2.0975364       1.1099686
  16 STRETCH   6 14                     2.0976718       1.1100402
  17 STRETCH   6 16                     2.0978700       1.1101451
  18 STRETCH  17 20                     2.2376275       1.1841016
  19 STRETCH  17 19                     2.2374024       1.1839824
  20 STRETCH  17 18                     2.2375517       1.1840615
  21 BEND      1  2  3                  1.7730717     101.5895277
  22 BEND      1  2  9                  1.8900563     108.2922512
  23 BEND      1  4  5                  1.8896082     108.2665774
  24 BEND      1  4 17                  1.8129067     103.8719003
  25 BEND      1  4 13                  2.2070797     126.4563509
  26 BEND      1  2 10                  2.0033672     114.7844860
  27 BEND      2  3  5                  1.7358026      99.4541612
  28 BEND      2  3 12                  1.8955230     108.6054673
  29 BEND      2  1  4                  1.7746795     101.6816433
  30 BEND      2  1  7                  1.9006949     108.9017987
  31 BEND      2  3 11                  1.9933263     114.2091861
  32 BEND      2  1  8                  1.9600220     112.3009877
  33 BEND      3  2  9                  1.8807996     107.7618800
  34 BEND      3  5  4                  1.9317755     110.6825812
  35 BEND      3  5  6                  2.1808698     124.9546361
  36 BEND      3  2 10                  2.0148918     115.4447969
  37 BEND      4  5  6                  2.1662240     124.1154922
  38 BEND      4 17 19                  1.7861749     102.3402846
  39 BEND      4 17 20                  1.7814529     102.0697315
  40 BEND      4  1  7                  1.9140499     109.6669790
  41 BEND      4 17 18                  1.7873011     102.4048089
  42 BEND      4  1  8                  1.9946913     114.2873917
  43 BEND      5  6 15                  1.9145797     109.6973377
  44 BEND      5  4 17                  1.8384139     105.3333582
  45 BEND      5  4 13                  2.0888149     119.6802784
  46 BEND      5  3 11                  2.0108901     115.2155137
  47 BEND      5  3 12                  1.8953071     108.5930957
  48 BEND      5  6 16                  1.9156928     109.7611132
  49 BEND      5  6 14                  1.9260686     110.3556005
  50 BEND      7  1  8                  1.9142024     109.6757205
  51 BEND      9  2 10                  1.8938195     108.5078671
  52 BEND     11  3 12                  1.9222828     110.1386890
  53 BEND     13  4 17                  1.4996049      85.9210316
  54 BEND     14  6 16                  1.9001204     108.8688767
  55 BEND     14  6 15                  1.8993761     108.8262365
  56 BEND     15  6 16                  1.9077714     109.3072510
  57 BEND     18 17 19                  2.0201281     115.7448147
  58 BEND     18 17 20                  2.0166303     115.5444053
  59 BEND     19 17 20                  2.0165363     115.5390175
  60 TORSION   1  4  5  6               2.8888133     165.5168075
  61 TORSION   1  4  5  3              -0.1572424      -9.0093269
  62 TORSION   1  2  3  5              -0.7218554     -41.3592660
  63 TORSION   1  2  3 11              -2.8731075    -164.6169362
  64 TORSION   1  4 17 18               1.2939385      74.1372166
  65 TORSION   1  4 17 19              -0.8043693     -46.0869679
  66 TORSION   1  2  3 12               1.2573154      72.0388643
  67 TORSION   1  4 17 20              -2.8965470    -165.9599163
  68 TORSION   2  3  5  6              -2.4813698    -142.1720172
  69 TORSION   2  3  5  4               0.5637151      32.2984938
  70 TORSION   2  1  4  5              -0.3163973     -18.1282274
  71 TORSION   2  1  4 13               2.3564881     135.0168212
  72 TORSION   2  1  4 17              -2.2644221    -129.7418311
  73 TORSION   3  5  6 14              -0.0571267      -3.2731164
  74 TORSION   3  5  6 15              -2.1496848    -123.1678636
  75 TORSION   3  5  4 17               1.7735786     101.6185664
  76 TORSION   3  5  4 13              -2.8673715    -164.2882861
  77 TORSION   3  2  1  7              -1.3732328     -78.6804448
  78 TORSION   3  2  1  4               0.6465527      37.0447417
  79 TORSION   3  5  6 16               2.0370589     116.7148791
  80 TORSION   3  2  1  8               2.7863249     159.6446599
  81 TORSION   4  5  3 11               2.7024725     154.8402699
  82 TORSION   4  5  3 12              -1.4156236     -81.1092560
  83 TORSION   4  1  2 10               2.8333453     162.3387268
  84 TORSION   4  5  6 16              -0.9954311     -57.0340014
  85 TORSION   4  5  6 14              -3.0896167    -177.0219969
  86 TORSION   4  5  6 15               1.1010105      63.0832559
  87 TORSION   4  1  2  9              -1.3311580     -76.2697335
  88 TORSION   5  3  2 10              -2.9009539    -166.2124167
  89 TORSION   5  3  2  9               1.2627794      72.3519318
  90 TORSION   5  4  1  7               1.6935668      97.0342319
  91 TORSION   5  4 17 18              -0.6910879     -39.5964186
  92 TORSION   5  4  1  8              -2.4321997    -139.3547773
  93 TORSION   5  4 17 20               1.4016119      80.3064485
  94 TORSION   5  4 17 19              -2.7893957    -159.8206031
  95 TORSION   6  5  3 11              -0.3426123     -19.6302410
  96 TORSION   6  5  3 12               1.8224769     104.4202331
  97 TORSION   6  5  4 17              -1.4635511     -83.8552992
  98 TORSION   6  5  4 13               0.1786842      10.2378483
  99 TORSION   7  1  2 10               0.8135598      46.6135403
 100 TORSION   7  1  4 13              -1.9167331    -109.8207195
 101 TORSION   7  1  2  9               2.9322418     168.0050800
 102 TORSION   7  1  4 17              -0.2544580     -14.5793718
 103 TORSION   8  1  4 17               1.9029607     109.0316190
 104 TORSION   8  1  2  9               0.8086143      46.3301846
 105 TORSION   8  1  2 10              -1.3100678     -75.0613551
 106 TORSION   8  1  4 13               0.2406856      13.7902713
 107 TORSION   9  2  3 11              -0.8884727     -50.9057383
 108 TORSION   9  2  3 12              -3.0412351    -174.2499379
 109 TORSION  10  2  3 11               1.2309792      70.5299132
 110 TORSION  10  2  3 12              -0.9217832     -52.8142864
 111 TORSION  13  4 17 18              -2.7799338    -159.2784742
 112 TORSION  13  4 17 20              -0.6872340     -39.3756070
 113 TORSION  13  4 17 19               1.4049436      80.4973413

     ------------------------------------------
     THE POINT GROUP IS C1 , NAXIS= 0, ORDER= 1
     ------------------------------------------

     DIMENSIONS OF THE SYMMETRY SUBSPACES ARE
 A   =   48

 ..... DONE SETTING UP THE RUN .....
 STEP CPU TIME =     0.08 TOTAL CPU TIME =          0.1 (      0.0 MIN)
 TOTAL WALL CLOCK TIME=          0.1 SECONDS, CPU UTILIZATION IS    88.89%


          -----------------------------
          STATIONARY POINT LOCATION RUN
          -----------------------------


           ** GEOMETRY CONSTRAINTS ARE BEING APPLIED. **

          TRANSFORMING DISPLACEMENT FROM INTERNALS TO CARTESIANS
          THE ROOT MEAN SQUARE ERROR IN ITERATION   1 IS   0.00479471
          THE ROOT MEAN SQUARE ERROR IN ITERATION   2 IS   0.00002013
          THE ROOT MEAN SQUARE ERROR IN ITERATION   3 IS   0.00000000
 WARNING! THE RADIUS IN CARTESIANS IS    1.26744
 OBTAINING INITIAL HESSIAN, HESS=CALC    

     ---------------------------------
     HESSIAN MATRIX CONTROL PARAMETERS
     ---------------------------------
     METHOD=ANALYTIC   NVIB  =       2   VIBSIZ= 0.01000
     RDHESS=       F   PURIFY=       F   PRTIFC=       F
     VIBANL=       F   DECOMP=       F   PROJCT=       F
     SCLFAC= 1.00000   PRTSCN=       F   NPRT  =       0
     PULCOR=       F   NPUN  =       0   REDOVB=       T
     HSSTYP=GENERAL 
 Old integral subroutine is used

     ------------------------------
     CPHF RESPONSE SOLUTION OPTIONS
     ------------------------------
     POLAR  =       F     NWORD  =       0
     CPHF   =AO      

          ********************
          1 ELECTRON INTEGRALS
          ********************
 ...... END OF ONE-ELECTRON INTEGRALS ......
 STEP CPU TIME =     0.04 TOTAL CPU TIME =          0.1 (      0.0 MIN)
 TOTAL WALL CLOCK TIME=          0.1 SECONDS, CPU UTILIZATION IS    92.31%

          -------------
          GUESS OPTIONS
          -------------
          GUESS =HUCKEL            NORB  =       0          NORDER=       0
          MIX   =       F          PRTMO =       F          PUNMO =       F
          TOLZ  = 1.0E-08          TOLE  = 1.0E-05
          SYMDEN=       F          PURIFY=       F

 INITIAL GUESS ORBITALS GENERATED BY HUCKEL   ROUTINE.
 HUCKEL GUESS REQUIRES     39252 WORDS.

 SYMMETRIES FOR INITIAL GUESS ORBITALS FOLLOW.   BOTH SET(S).
    27 ORBITALS ARE OCCUPIED (    7 CORE ORBITALS).
     8=A        9=A       10=A       11=A       12=A       13=A       14=A   
    15=A       16=A       17=A       18=A       19=A       20=A       21=A   
    22=A       23=A       24=A       25=A       26=A       27=A       28=A   
    29=A       30=A       31=A       32=A       33=A       34=A       35=A   
    36=A       37=A   
 ...... END OF INITIAL ORBITAL SELECTION ......
 STEP CPU TIME =     0.01 TOTAL CPU TIME =          0.1 (      0.0 MIN)
 TOTAL WALL CLOCK TIME=          0.2 SECONDS, CPU UTILIZATION IS    86.67%

                    ----------------------
                    AO INTEGRAL TECHNOLOGY
                    ----------------------
     S,P,L SHELL ROTATED AXIS INTEGRALS, REPROGRAMMED BY
        KAZUYA ISHIMURA (IMS) AND JOSE SIERRA (SYNSTAR).
     S,P,D,L SHELL ROTATED AXIS INTEGRALS PROGRAMMED BY
        KAZUYA ISHIMURA (INSTITUTE FOR MOLECULAR SCIENCE).
     S,P,D,F,G SHELL TO TOTAL QUARTET ANGULAR MOMENTUM SUM 5,
        ERIC PROGRAM BY GRAHAM FLETCHER (ELORET AND NASA ADVANCED
        SUPERCOMPUTING DIVISION, AMES RESEARCH CENTER).
     S,P,D,F,G,L SHELL GENERAL RYS QUADRATURE PROGRAMMED BY
        MICHEL DUPUIS (PACIFIC NORTHWEST NATIONAL LABORATORY).

          --------------------
          2 ELECTRON INTEGRALS
          --------------------

 THE -PK- OPTION IS OFF, THE INTEGRALS ARE NOT IN SUPERMATRIX FORM.
 STORING   15000 INTEGRALS/RECORD ON DISK, USING 12 BYTES/INTEGRAL.
 TWO ELECTRON INTEGRAL EVALUATION REQUIRES   89734 WORDS OF MEMORY.
 SCHWARZ INEQUALITY OVERHEAD:      1169 INTEGRALS, T=        0.00
 II,JST,KST,LST =  1  1  1  1 NREC =         1 INTLOC =    1
 II,JST,KST,LST =  2  1  1  1 NREC =         1 INTLOC =    2
 II,JST,KST,LST =  3  1  1  1 NREC =         1 INTLOC =   34
 II,JST,KST,LST =  4  1  1  1 NREC =         1 INTLOC =  139
 II,JST,KST,LST =  5  1  1  1 NREC =         1 INTLOC = 1350
 II,JST,KST,LST =  6  1  1  1 NREC =         1 INTLOC = 1924
 II,JST,KST,LST =  7  1  1  1 NREC =         1 INTLOC = 6803
 II,JST,KST,LST =  8  1  1  1 NREC =         1 INTLOC = 8493
 II,JST,KST,LST =  9  1  1  1 NREC =         2 INTLOC = 5957
 II,JST,KST,LST = 10  1  1  1 NREC =         2 INTLOC = 9948
 II,JST,KST,LST = 11  1  1  1 NREC =         4 INTLOC = 5426
 II,JST,KST,LST = 12  1  1  1 NREC =         4 INTLOC =12350
 II,JST,KST,LST = 13  1  1  1 NREC =         7 INTLOC =12165
 II,JST,KST,LST = 14  1  1  1 NREC =         8 INTLOC =11578
 II,JST,KST,LST = 15  1  1  1 NREC =         9 INTLOC =12312
 II,JST,KST,LST = 16  1  1  1 NREC =        10 INTLOC =14873
 II,JST,KST,LST = 17  1  1  1 NREC =        12 INTLOC = 3744
 II,JST,KST,LST = 18  1  1  1 NREC =        13 INTLOC = 9684
 II,JST,KST,LST = 19  1  1  1 NREC =        15 INTLOC = 2584
 II,JST,KST,LST = 20  1  1  1 NREC =        16 INTLOC =12390
 II,JST,KST,LST = 21  1  1  1 NREC =        18 INTLOC = 8908
 II,JST,KST,LST = 22  1  1  1 NREC =        20 INTLOC = 7470
 II,JST,KST,LST = 23  1  1  1 NREC =        22 INTLOC = 8598
 II,JST,KST,LST = 24  1  1  1 NREC =        24 INTLOC = 5470
 II,JST,KST,LST = 25  1  1  1 NREC =        35 INTLOC =  809
 II,JST,KST,LST = 26  1  1  1 NREC =        38 INTLOC = 3271
 II,JST,KST,LST = 27  1  1  1 NREC =        41 INTLOC = 7893
 SCHWARZ INEQUALITY TEST SKIPPED        7752 INTEGRAL BLOCKS.
 TOTAL NUMBER OF NONZERO TWO-ELECTRON INTEGRALS =              660855
         45 INTEGRAL RECORDS WERE STORED ON DISK FILE  8.
  ...... END OF TWO-ELECTRON INTEGRALS .....
 STEP CPU TIME =     0.20 TOTAL CPU TIME =          0.3 (      0.0 MIN)
 TOTAL WALL CLOCK TIME=          0.3 SECONDS, CPU UTILIZATION IS    97.06%

          --------------------------
                 RHF SCF CALCULATION
          --------------------------

     NUCLEAR ENERGY =       307.4664684811
     MAXIT =   30     NPUNCH=    2
     EXTRAP=T  DAMP=F  SHIFT=F  RSTRCT=F  DIIS=F  DEM=F  SOSCF=T
     DENSITY MATRIX CONV=  1.00E-05
     SOSCF WILL OPTIMIZE     567 ORBITAL ROTATIONS, SOGTOL=   0.250
     MEMORY REQUIRED FOR RHF ITERS=     49068 WORDS.

 ITER EX DEM     TOTAL ENERGY        E CHANGE  DENSITY CHANGE     ORB. GRAD
   1  0  0     -255.9127867549  -255.9127867549   0.300450010   0.000000000
          ---------------START SECOND ORDER SCF---------------
   2  1  0     -256.2836859986    -0.3708992437   0.066231302   0.025032744
   3  2  0     -256.2986197053    -0.0149337067   0.037998946   0.009703198
   4  3  0     -256.3000509688    -0.0014312635   0.008736262   0.001711332
   5  4  0     -256.3001319284    -0.0000809596   0.002087550   0.000355246
   6  5  0     -256.3001385383    -0.0000066099   0.000426846   0.000124972
   7  6  0     -256.3001390532    -0.0000005149   0.000229610   0.000044331
   8  7  0     -256.3001391227    -0.0000000695   0.000059276   0.000013091
   9  8  0     -256.3001391294    -0.0000000067   0.000018280   0.000004234
  10  9  0     -256.3001391304    -0.0000000009   0.000004597   0.000001023
  11 10  0     -256.3001391304    -0.0000000000   0.000001633   0.000000262

          -----------------
          DENSITY CONVERGED
          -----------------
     TIME TO FORM FOCK OPERATORS=       0.1 SECONDS (       0.0 SEC/ITER)
     TIME TO SOLVE SCF EQUATIONS=       0.0 SECONDS (       0.0 SEC/ITER)

 FINAL RHF ENERGY IS     -256.3001391304 AFTER  11 ITERATIONS

          ------------
          EIGENVECTORS
          ------------

                      1          2          3          4          5
                  -11.1298   -11.0868   -11.0828   -11.0634   -11.0550
                     A          A          A          A          A   
    1  C  1  S   -0.000474  -0.000154  -0.002024  -0.014393   0.991843
    2  C  1  S    0.000147  -0.000062  -0.000065  -0.006284   0.037146
    3  C  1  X    0.000007  -0.000025  -0.000211   0.002865   0.000221
    4  C  1  Y    0.000148   0.000052   0.000219   0.003145  -0.000777
    5  C  1  Z   -0.000072  -0.000014  -0.000229  -0.000006   0.000061
    6  C  2  S   -0.000930   0.000004  -0.005374   0.991832   0.015341
    7  C  2  S   -0.000026  -0.000004  -0.006023   0.037193  -0.005237
    8  C  2  X   -0.000466  -0.000010  -0.002330   0.000794  -0.002675
    9  C  2  Y    0.000031  -0.000010   0.003309  -0.000201  -0.003349
   10  C  2  Z    0.000316  -0.000002  -0.001436  -0.000325   0.000011
   11  C  3  S   -0.001372  -0.001918   0.991886   0.006289   0.002236
   12  C  3  S   -0.005818   0.000050   0.037616  -0.005612  -0.000009
   13  C  3  X   -0.003520   0.000042   0.000671   0.002645  -0.000178
   14  C  3  Y   -0.000711  -0.000123   0.000941  -0.003135  -0.000339
   15  C  3  Z    0.002206  -0.000045  -0.000449   0.001340  -0.000057
   16  C  4  S    0.003793  -0.000239  -0.000645  -0.001220  -0.004394
   17  C  4  S   -0.007354   0.000167   0.000202   0.000186  -0.006111
   18  C  4  X    0.000490   0.000072  -0.000059   0.000086   0.003651
   19  C  4  Y    0.004486  -0.000006  -0.000003   0.000135  -0.001962
   20  C  4  Z   -0.000408  -0.000105  -0.000084   0.000102  -0.001283
   21  C  5  S    0.992285   0.002929   0.002302   0.001090   0.000583
   22  C  5  S    0.035404  -0.006044  -0.006222  -0.000064   0.000308
   23  C  5  X   -0.000353  -0.002693   0.003700   0.000290   0.000010
   24  C  5  Y    0.001792   0.003115   0.001030  -0.000237   0.000036
   25  C  5  Z   -0.000117   0.001854  -0.002354   0.000135  -0.000069
   26  C  6  S   -0.001986   0.991966   0.001919   0.000003   0.000171
   27  C  6  S   -0.005632   0.037484   0.000257  -0.000058  -0.000071
   28  C  6  X    0.002464  -0.000330  -0.000116  -0.000010   0.000011
   29  C  6  Y   -0.002869   0.000375  -0.000087  -0.000022  -0.000067
   30  C  6  Z   -0.001642   0.000189   0.000078  -0.000077  -0.000009
   31  H  7  S    0.000018   0.000004   0.000080   0.000112  -0.006725
   32  H  8  S   -0.000067  -0.000008  -0.000147   0.000213  -0.006677
   33  H  9  S   -0.000186   0.000019   0.000047  -0.006777  -0.000080
   34  H 10  S   -0.000201  -0.000000   0.000162  -0.006642   0.000021
   35  H 11  S    0.000044  -0.000024  -0.006653   0.000083  -0.000174
   36  H 12  S   -0.000164   0.000024  -0.006783  -0.000036  -0.000005
   37  H 13  S    0.000092  -0.000163  -0.000088  -0.000024   0.000087
   38  H 14  S   -0.000022  -0.006725  -0.000157  -0.000014  -0.000009
   39  H 15  S   -0.000120  -0.006722  -0.000014   0.000010  -0.000007
   40  H 16  S   -0.000123  -0.006742  -0.000011  -0.000003   0.000002
   41  B 17  S    0.000093  -0.000005  -0.000005   0.000003   0.000032
   42  B 17  S   -0.000238   0.000014   0.000019  -0.000038   0.000037
   43  B 17  X    0.000103  -0.000023  -0.000017   0.000004   0.000167
   44  B 17  Y    0.000720  -0.000041  -0.000016   0.000001  -0.000072
   45  B 17  Z    0.000112   0.000003  -0.000032   0.000050  -0.000050
   46  H 18  S   -0.000240   0.000013   0.000089   0.000006   0.000085
   47  H 19  S   -0.000225   0.000009   0.000004  -0.000025  -0.000015
   48  H 20  S    0.000082   0.000077  -0.000014   0.000011  -0.000101

                      6          7          8          9         10
                  -11.0294    -7.3057    -1.1471    -1.0050    -0.9493
                     A          A          A          A          A   
    1  C  1  S    0.005339   0.000062  -0.083034   0.087272   0.095222
    2  C  1  S   -0.005662   0.000140   0.210058  -0.239772  -0.272836
    3  C  1  X   -0.003486  -0.000356   0.014539   0.038459  -0.077424
    4  C  1  Y    0.001949  -0.000020  -0.057743   0.041140  -0.000078
    5  C  1  Z    0.001357  -0.000005  -0.007626  -0.005935   0.023352
    6  C  2  S    0.001378   0.000003  -0.088097   0.112821  -0.059910
    7  C  2  S    0.000159  -0.000057   0.223263  -0.312985   0.171429
    8  C  2  X   -0.000238  -0.000019   0.060918  -0.038444  -0.003939
    9  C  2  Y    0.000118  -0.000045  -0.010191  -0.014379  -0.101045
   10  C  2  Z    0.000147   0.000073   0.004385  -0.004712   0.025951
   11  C  3  S    0.000738  -0.000007  -0.107941   0.038934  -0.144086
   12  C  3  S    0.000224   0.000062   0.279087  -0.104991   0.417675
   13  C  3  X   -0.000007   0.000050   0.033911   0.068228  -0.016517
   14  C  3  Y   -0.000181   0.000007   0.051126  -0.053319  -0.003601
   15  C  3  Z   -0.000095   0.000026  -0.042660  -0.006048  -0.010901
   16  C  4  S    0.991803   0.000616  -0.112826  -0.022978   0.142678
   17  C  4  S    0.038221  -0.004582   0.277964   0.064775  -0.395251
   18  C  4  X   -0.000090  -0.002556  -0.042720   0.055528   0.020788
   19  C  4  Y   -0.002319  -0.001112  -0.069449  -0.076980  -0.001918
   20  C  4  Z    0.000898  -0.002919   0.027445  -0.016256  -0.013044
   21  C  5  S   -0.003205   0.000159  -0.140549  -0.101901  -0.000010
   22  C  5  S   -0.008303  -0.000450   0.359662   0.285537   0.003382
   23  C  5  X   -0.000608  -0.000375  -0.038494   0.097042  -0.078429
   24  C  5  Y   -0.004840  -0.000096   0.058320  -0.051885  -0.171016
   25  C  5  Z    0.000835  -0.000278   0.009517  -0.058558   0.054569
   26  C  6  S    0.000267  -0.000010  -0.052403  -0.153093  -0.041249
   27  C  6  S    0.000293   0.000172   0.140784   0.428699   0.118665
   28  C  6  X   -0.000093   0.000024  -0.029000  -0.031937  -0.016027
   29  C  6  Y    0.000036  -0.000008   0.032426   0.041158  -0.016835
   30  C  6  Z    0.000053   0.000017   0.018376   0.020398   0.009578
   31  H  7  S    0.000095  -0.000999   0.036012  -0.054448  -0.065815
   32  H  8  S    0.000001  -0.000012   0.031715  -0.053211  -0.071169
   33  H  9  S   -0.000103  -0.000016   0.042781  -0.071067   0.044045
   34  H 10  S   -0.000156   0.000006   0.033834  -0.071344   0.048169
   35  H 11  S   -0.000110  -0.000002   0.045170  -0.018128   0.124249
   36  H 12  S   -0.000005  -0.000054   0.050473  -0.027598   0.105350
   37  H 13  S   -0.006495  -0.001061   0.045635   0.025200  -0.109950
   38  H 14  S   -0.000087  -0.000018   0.024209   0.099899   0.046205
   39  H 15  S    0.000002  -0.000291   0.023938   0.101093   0.024713
   40  H 16  S   -0.000064   0.000003   0.025333   0.104406   0.026443
   41  B 17  S    0.000531   0.990130  -0.013279  -0.005309   0.028821
   42  B 17  S   -0.004467   0.041015   0.019793   0.009409  -0.050988
   43  B 17  X    0.002637  -0.000956  -0.008113  -0.000926   0.016871
   44  B 17  Y    0.001212  -0.000444  -0.004279  -0.005394   0.004442
   45  B 17  Z    0.002241  -0.000902  -0.006918  -0.004266   0.016373
   46  H 18  S    0.000528  -0.006920   0.007938   0.003691  -0.015753
   47  H 19  S    0.000436  -0.006887   0.005206  -0.000347  -0.019691
   48  H 20  S    0.000526  -0.006894   0.005188   0.006041  -0.016099

                     11         12         13         14         15
                   -0.8915    -0.7716    -0.7088    -0.6475    -0.6374
                     A          A          A          A          A   
    1  C  1  S   -0.101432   0.112697  -0.029469   0.019706  -0.014580
    2  C  1  S    0.298734  -0.353059   0.091047  -0.065941   0.050802
    3  C  1  X   -0.082455  -0.065424  -0.088556   0.007283  -0.137249
    4  C  1  Y    0.003570  -0.110947  -0.043263  -0.132998   0.176939
    5  C  1  Z    0.008163  -0.046204  -0.003668   0.213789   0.115908
    6  C  2  S   -0.093332  -0.122598   0.007118  -0.014654  -0.015312
    7  C  2  S    0.278002   0.388080  -0.023587   0.048220   0.051521
    8  C  2  X   -0.018026  -0.119987   0.085340   0.053529  -0.204407
    9  C  2  Y    0.090223  -0.051716   0.098357   0.041005   0.114042
   10  C  2  Z   -0.017680  -0.063704  -0.077745   0.207812   0.084491
   11  C  3  S    0.074555   0.069121   0.057468   0.013092   0.018355
   12  C  3  S   -0.220260  -0.219111  -0.191889  -0.044215  -0.057269
   13  C  3  X   -0.081014  -0.105100   0.178571   0.045529   0.067579
   14  C  3  Y    0.023378   0.095789   0.092145   0.254257  -0.101629
   15  C  3  Z    0.001563  -0.081468  -0.152514   0.182647   0.071015
   16  C  4  S    0.061903  -0.037077   0.075591   0.018315   0.045510
   17  C  4  S   -0.170454   0.104348  -0.252244  -0.071613  -0.144508
   18  C  4  X   -0.037410   0.093481  -0.188719  -0.011270   0.184999
   19  C  4  Y    0.099280  -0.137545  -0.181468  -0.117198  -0.046698
   20  C  4  Z   -0.008881  -0.070563   0.067975   0.190647   0.023235
   21  C  5  S    0.070260  -0.023509  -0.105303   0.009955  -0.074800
   22  C  5  S   -0.209341   0.070188   0.348171  -0.044614   0.266354
   23  C  5  X    0.099683   0.085918  -0.094707   0.044737   0.199185
   24  C  5  Y   -0.134658   0.139423  -0.023881   0.169868  -0.182360
   25  C  5  Z   -0.071797  -0.103797   0.005851   0.113019  -0.002279
   26  C  6  S   -0.136482   0.014678   0.023657  -0.017271   0.030593
   27  C  6  S    0.402896  -0.046902  -0.075350   0.061262  -0.106799
   28  C  6  X    0.029243   0.008382  -0.108484   0.165876  -0.132387
   29  C  6  Y   -0.038218   0.064412   0.062167  -0.026767   0.213615
   30  C  6  Z   -0.024418  -0.017494   0.051784  -0.006241   0.199838
   31  H  7  S    0.083434  -0.167515   0.007047   0.091406   0.136792
   32  H  8  S    0.099082  -0.141751   0.029562  -0.189014   0.096796
   33  H  9  S    0.082032   0.193120   0.013242  -0.152437  -0.014569
   34  H 10  S    0.092612   0.166847  -0.070095   0.072791   0.191596
   35  H 11  S   -0.059315  -0.099018  -0.160618  -0.222391   0.013463
   36  H 12  S   -0.068454  -0.127318  -0.140726   0.148921   0.035399
   37  H 13  S   -0.044448   0.072050  -0.252901  -0.149333  -0.004347
   38  H 14  S    0.127979  -0.060249  -0.039624  -0.006334  -0.125094
   39  H 15  S    0.123011  -0.009041  -0.082475   0.134153  -0.061016
   40  H 16  S    0.129523   0.000745  -0.061801   0.025152  -0.180688
   41  B 17  S    0.013132   0.000037   0.085369  -0.044929  -0.063604
   42  B 17  S   -0.025000  -0.001135  -0.185178   0.105533   0.147993
   43  B 17  X    0.007252   0.011066   0.010513  -0.016377   0.004623
   44  B 17  Y    0.008573  -0.011926  -0.003443  -0.026062  -0.016569
   45  B 17  Z    0.007675  -0.012508   0.037557   0.023410   0.001598
   46  H 18  S   -0.011225  -0.008275  -0.065403   0.085885   0.083767
   47  H 19  S   -0.003622  -0.014455  -0.088298   0.034811   0.065680
   48  H 20  S   -0.008445   0.012075  -0.092989   0.038843   0.079422

                     16         17         18         19         20
                   -0.6032    -0.5665    -0.5577    -0.5347    -0.5116
                     A          A          A          A          A   
    1  C  1  S    0.017175  -0.001095   0.015585  -0.009139  -0.004787
    2  C  1  S   -0.060177   0.003925  -0.051997   0.032067   0.020532
    3  C  1  X    0.071925  -0.037216   0.035093   0.186089  -0.039689
    4  C  1  Y   -0.059922   0.000462  -0.070262  -0.013963  -0.108361
    5  C  1  Z   -0.003613  -0.185506   0.026819   0.284949   0.103576
    6  C  2  S   -0.013898   0.001083  -0.014533   0.003676  -0.020905
    7  C  2  S    0.047419  -0.003506   0.050362  -0.013534   0.080707
    8  C  2  X    0.028010  -0.007965  -0.099013  -0.054505   0.326565
    9  C  2  Y   -0.052228   0.040244   0.080072  -0.131699  -0.083393
   10  C  2  Z   -0.174322  -0.100735   0.167457   0.115392   0.097535
   11  C  3  S    0.019348  -0.003941   0.018383   0.008421  -0.016776
   12  C  3  S   -0.070496   0.012647  -0.065640  -0.028845   0.068164
   13  C  3  X    0.093168   0.058025   0.100614  -0.246047  -0.042088
   14  C  3  Y    0.022694  -0.015259   0.084156  -0.166771   0.272065
   15  C  3  Z   -0.216099   0.105909   0.095862  -0.239341  -0.145064
   16  C  4  S    0.017060  -0.016261  -0.042992  -0.025969   0.025070
   17  C  4  S   -0.045781   0.056356   0.157683   0.089333  -0.076306
   18  C  4  X   -0.006751  -0.005876   0.038388  -0.064509   0.129922
   19  C  4  Y    0.113218   0.006066   0.094271  -0.040342   0.229005
   20  C  4  Z    0.142306  -0.016034  -0.085512   0.101426  -0.202007
   21  C  5  S    0.002876   0.007543  -0.000293  -0.000451   0.008457
   22  C  5  S   -0.002417  -0.028790   0.002531  -0.003995  -0.017593
   23  C  5  X   -0.130089   0.060076  -0.047911   0.064687  -0.000238
   24  C  5  Y   -0.113176   0.036947  -0.083180   0.062617  -0.310212
   25  C  5  Z    0.158632   0.118254   0.036854  -0.068097  -0.064007
   26  C  6  S   -0.001803  -0.002866   0.000112  -0.000889  -0.006452
   27  C  6  S    0.007351   0.010699  -0.000339   0.002940   0.022226
   28  C  6  X   -0.039267   0.310567  -0.282198   0.068877  -0.003337
   29  C  6  Y   -0.194772  -0.033182  -0.311718  -0.020627   0.220199
   30  C  6  Z    0.149528   0.391128   0.144552   0.175384   0.125463
   31  H  7  S   -0.024249  -0.148576  -0.024564   0.241517   0.049673
   32  H  8  S   -0.073534   0.102995  -0.089539  -0.193420  -0.109310
   33  H  9  S    0.151157   0.072546  -0.106596  -0.069095  -0.120544
   34  H 10  S   -0.078870  -0.037071   0.182110   0.071169  -0.178684
   35  H 11  S   -0.044769  -0.018068  -0.133049   0.248917  -0.175006
   36  H 12  S   -0.173735   0.094146   0.071112  -0.273126  -0.082550
   37  H 13  S   -0.056334   0.024828   0.158955  -0.076934   0.247944
   38  H 14  S    0.185983   0.022836   0.358062   0.042109  -0.163070
   39  H 15  S    0.004959   0.354844  -0.214862   0.103552   0.070100
   40  H 16  S   -0.136130  -0.333600  -0.156317  -0.162212  -0.083707
   41  B 17  S   -0.144121   0.053431   0.063559   0.054472   0.008007
   42  B 17  S    0.342123  -0.127978  -0.155679  -0.131780  -0.022883
   43  B 17  X   -0.001217   0.005411  -0.022120  -0.054365   0.040567
   44  B 17  Y    0.009778  -0.033145   0.012871   0.007653   0.049107
   45  B 17  Z    0.018619  -0.022825  -0.037013   0.001208  -0.060807
   46  H 18  S    0.182655  -0.068453  -0.108160  -0.075656  -0.088158
   47  H 19  S    0.183093  -0.098377  -0.076286  -0.054231   0.020955
   48  H 20  S    0.163351  -0.045985  -0.095110  -0.113613   0.039960

                     21         22         23         24         25
                   -0.4752    -0.4728    -0.4531    -0.4494    -0.3774
                     A          A          A          A          A   
    1  C  1  S   -0.019479   0.013395   0.010546  -0.005033   0.008614
    2  C  1  S    0.073908  -0.053533  -0.044632   0.023984  -0.034210
    3  C  1  X   -0.284595  -0.223595  -0.052310  -0.198948  -0.047619
    4  C  1  Y   -0.157153   0.286393   0.260812  -0.241399   0.008778
    5  C  1  Z   -0.049853   0.009405   0.254650   0.253497   0.019168
    6  C  2  S   -0.006876   0.008553   0.004352  -0.003289   0.005760
    7  C  2  S    0.033711  -0.032031  -0.017700   0.012975  -0.022102
    8  C  2  X    0.318240  -0.033422   0.065581   0.023508  -0.020327
    9  C  2  Y    0.136409  -0.038152  -0.233180   0.388830   0.046935
   10  C  2  Z    0.058836   0.208389  -0.299987  -0.181346  -0.032262
   11  C  3  S    0.001413  -0.023687  -0.006643   0.007643   0.001731
   12  C  3  S   -0.005059   0.088761   0.026263  -0.035247  -0.008930
   13  C  3  X   -0.277465   0.068722  -0.051955   0.268012   0.010954
[...]
                   Z -0.00342708  0.00681107 -0.40133026 -0.41386113 -0.05885095
 19   H            X -0.00582869  0.03512179  0.21906687 -0.23699830  0.24043970
                   Y -0.00183452 -0.02217823 -0.42837609  0.45205967 -0.46269706
                   Z  0.00161081  0.05956409 -0.20342943  0.23354149 -0.22707749
 20   H            X -0.00297566  0.00763860 -0.46976934  0.31665620  0.68542343
                   Y -0.00305914 -0.00092165 -0.05059977  0.02658903  0.06578974
                   Z -0.01098594  0.04091850  0.17695231 -0.11602815 -0.25877058

 TRANS. SAYVETZ    X -0.00000008 -0.00000038  0.00000025  0.00000012  0.00000011
                   Y  0.00000007 -0.00000029 -0.00000011  0.00000012 -0.00000004
                   Z  0.00000003  0.00000019  0.00000051  0.00000022 -0.00000004
               TOTAL  0.00000011  0.00000051  0.00000058  0.00000028  0.00000012

   ROT. SAYVETZ    X  0.00041175  0.01292627 -0.00017783 -0.00237132  0.00075699
                   Y  0.00054059  0.00123623  0.00046875  0.00081912  0.00276226
                   Z -0.00029757 -0.00787902  0.00014706  0.00169013 -0.00029566
               TOTAL  0.00074184  0.01518867  0.00052247  0.00302500  0.00287933

                           51          52          53          54          55
       FREQUENCY:      3572.84     3608.34     3608.98     3633.48     3729.59  
        SYMMETRY:         A           A           A           A           A   
    REDUCED MASS:      1.03925     1.06712     1.06752     1.06832     1.10977
    IR INTENSITY:      0.00962     0.00901     0.04553     0.01006     0.00477

  1   C            X -0.00007067  0.01221091 -0.02811359 -0.00193114  0.00327686
                   Y  0.00016205 -0.01998677  0.04475724  0.00464118  0.00703527
                   Z -0.00013720  0.01687748 -0.03760156 -0.00712061  0.00883396
  2   C            X -0.00011864  0.00280335  0.00751560 -0.05320279  0.00604211
                   Y -0.00002117  0.00275616 -0.00188117  0.01204526  0.00082330
                   Z  0.00005752 -0.00215439 -0.00250313  0.04495894  0.00473543
  3   C            X  0.00016432 -0.02489152 -0.01123999 -0.00168616 -0.02797323
                   Y  0.00071829 -0.05965923 -0.02602302 -0.00807752  0.01093323
                   Z  0.00022128 -0.00434728 -0.00177896 -0.00315704 -0.08514643
  4   C            X -0.00003382 -0.00000403  0.00014813 -0.00028402  0.00014773
                   Y  0.00038145  0.00101458 -0.00210948 -0.00030901  0.00017618
                   Z -0.00003257 -0.00038875  0.00122447  0.00038883 -0.00037763
  5   C            X -0.00191555  0.00111937  0.00092300  0.00046886 -0.00068143
                   Y  0.00164759  0.00053129  0.00006581 -0.00035895 -0.00048501
                   Z  0.00058119 -0.00086779 -0.00043498 -0.00022557  0.00053812
  6   C            X  0.02615222  0.00044332  0.00003490  0.00002276  0.00150705
                   Y -0.04012320 -0.00024033 -0.00001868  0.00014692  0.00011781
                   Z -0.02119383 -0.00002432  0.00008941  0.00005584  0.00193054
  7   H            X -0.00012399  0.01217685 -0.02581594 -0.00322497 -0.00495806
                   Y -0.00181409  0.20302696 -0.44712816 -0.03068706 -0.09084679
                   Z -0.00094000  0.09322809 -0.20649875 -0.01471848 -0.03990747
  8   H            X  0.00091562 -0.15359416  0.34423083  0.04353136 -0.03449906
                   Y -0.00003860  0.01874621 -0.04310589 -0.00373574  0.00483967
                   Z  0.00197371 -0.28292888  0.63579337  0.07456246 -0.06405901
  9   H            X  0.00154780 -0.03931371 -0.10243505  0.66586056 -0.06000594
                   Y  0.00020830 -0.00459842 -0.00723227  0.05538936 -0.00629885
                   Z  0.00035211 -0.00719710 -0.02042762  0.14177764 -0.01184935
 10   H            X -0.00015194  0.00258459  0.00655708 -0.08086734 -0.00643609
                   Y -0.00030129  0.01209615  0.01776392 -0.18689635 -0.00804133
                   Z -0.00102010  0.02583313  0.06668230 -0.63655999 -0.03679692
 11   H            X -0.00392165  0.34385316  0.15040785  0.04398557  0.25611189
                   Y -0.00418231  0.39650171  0.17416481  0.04632254  0.29913624
                   Z -0.00520470  0.48831100  0.21381111  0.05880889  0.36119995
 12   H            X  0.00053716 -0.05831788 -0.02468585 -0.00552435  0.08165927
                   Y -0.00191057  0.27094323  0.11660578  0.01863666 -0.41456294
                   Z  0.00327525 -0.42977471 -0.18571718 -0.03097677  0.63839563
 13   H            X -0.00219953 -0.00419773  0.01615510  0.00843381 -0.00450800
                   Y -0.00180240 -0.00258811  0.01247893  0.00506987 -0.00322490
                   Z  0.00237302  0.00316035 -0.01675333 -0.00795276  0.00301947
 14   H            X -0.11639567 -0.00124615 -0.00040888  0.00005111 -0.00324025
                   Y  0.33590137  0.00354644  0.00090691 -0.00030507  0.01027427
                   Z -0.40253939 -0.00422628 -0.00109904  0.00044436 -0.01221666
 15   H            X -0.42547963 -0.00574842 -0.00121484  0.00009710 -0.00645041
                   Y -0.22197041 -0.00262083 -0.00029611  0.00000851 -0.00340040
                   Z  0.15724782  0.00219969  0.00048815 -0.00002785  0.00257888
 16   H            X  0.25774366  0.00174871  0.00002406 -0.00055627 -0.00701510
                   Y  0.33626005  0.00227646 -0.00036005 -0.00063513 -0.00895672
                   Z  0.48623732  0.00310267 -0.00037056 -0.00094929 -0.01309252
 17   B            X  0.00007065  0.00006282  0.00023668  0.00011037  0.00004704
                   Y -0.00010321 -0.00014586  0.00001774  0.00008868  0.00029621
                   Z  0.00012563  0.00007889  0.00024484  0.00005081 -0.00022605
 18   H            X  0.00020145  0.00128953  0.00028513  0.00023495 -0.00081622
                   Y  0.00224758  0.00281872  0.00071182  0.00002472 -0.00265440
                   Z -0.00021875 -0.00116038 -0.00053927 -0.00008292  0.00205470
 19   H            X -0.00069754 -0.00111156  0.00094167  0.00112203  0.00050148
                   Y  0.00133470  0.00142091 -0.00095952 -0.00042035 -0.00086049
                   Z  0.00063191  0.00027344  0.00022246 -0.00042558 -0.00012247
 20   H            X -0.00062868  0.00023889 -0.00070610 -0.00027412 -0.00033393
                   Y  0.00054567 -0.00000640  0.00014600 -0.00004134 -0.00011539
                   Z  0.00059201  0.00002527 -0.00003018 -0.00000821  0.00062321

 TRANS. SAYVETZ    X  0.00000056  0.00000024  0.00000031 -0.00000021  0.00000001
                   Y  0.00000002  0.00000024  0.00000017  0.00000046 -0.00000008
                   Z -0.00000046  0.00000013 -0.00000040 -0.00000041 -0.00000003
               TOTAL  0.00000072  0.00000036  0.00000054  0.00000065  0.00000008

   ROT. SAYVETZ    X  0.00005326  0.00011255 -0.00001979 -0.00000416  0.00003903
                   Y  0.00000996 -0.00000741 -0.00007125  0.00005931  0.00002785
                   Z -0.00002496 -0.00007277  0.00000580 -0.00002668 -0.00001453
               TOTAL  0.00005966  0.00013423  0.00007417  0.00006516  0.00005010

                           56          57          58          59          60
       FREQUENCY:      3733.70     3742.25     3745.90     3752.13     3773.09  
        SYMMETRY:         A           A           A           A           A   
    REDUCED MASS:      1.11041     1.10692     1.09960     1.11164     1.11033
    IR INTENSITY:      0.00290     0.02149     0.46605     0.00829     0.03081

  1   C            X -0.02334883 -0.00020661  0.00067662 -0.00287094  0.00003775
                   Y -0.05785607 -0.00178129 -0.00879634 -0.00468778  0.00002573
                   Z -0.06442809 -0.00172488 -0.00732687 -0.00719858  0.00000926
  2   C            X  0.00910364  0.00075312 -0.00222872 -0.06030972  0.00002213
                   Y  0.00283449  0.00017623 -0.00123306 -0.02027416  0.00004270
                   Z  0.00738599  0.00048197 -0.00457712 -0.06531835  0.00002221
  3   C            X -0.00312335 -0.00082304 -0.00050981 -0.00255362  0.00019104
                   Y  0.00203662  0.00020774  0.00113352 -0.00020088 -0.00030292
                   Z -0.01034792 -0.00258102 -0.00201433 -0.00713556 -0.00013000
  4   C            X  0.00556525 -0.00644563 -0.05342715  0.00398266  0.00011128
                   Y  0.00502143 -0.00458623 -0.03824297  0.00287793  0.00044324
                   Z -0.00600660  0.00647694  0.05432683 -0.00401714 -0.00011415
  5   C            X -0.00048900  0.00042010 -0.00004357  0.00013452  0.00040371
                   Y -0.00057045 -0.00004983  0.00576751 -0.00065745 -0.00026247
                   Z  0.00017527 -0.00025167 -0.00121120 -0.00004708 -0.00033588
  6   C            X  0.00085508 -0.05326914  0.00665704 -0.00064663 -0.04961757
                   Y  0.00019048 -0.00901580  0.00040489 -0.00003733 -0.06250748
                   Z  0.00106660 -0.07145690  0.00882120 -0.00086020  0.04504542
  7   H            X  0.03506485  0.00093053  0.00333190  0.00442758 -0.00005741
                   Y  0.70087284  0.01954719  0.09592281  0.06423181  0.00007658
                   Z  0.31210219  0.00877273  0.04282510  0.02835456 -0.00000548
  8   H            X  0.24513255  0.00480782  0.01761141  0.03198000 -0.00016053
                   Y -0.03384833 -0.00050677 -0.00206278 -0.00787843  0.00002634
                   Z  0.45093200  0.00968925  0.03632278  0.06387751 -0.00022277
  9   H            X -0.09217178 -0.00683769  0.02951744  0.63136690  0.00023855
                   Y -0.00634023 -0.00060919  0.00253212  0.05138960 -0.00006612
                   Z -0.01908039 -0.00143750  0.00563937  0.12928609  0.00001849
 10   H            X -0.01026157 -0.00068542  0.00491465  0.07467762 -0.00007977
                   Y -0.02040403 -0.00125019  0.01288526  0.18746491 -0.00005355
                   Z -0.06238320 -0.00427115  0.04541520  0.64051458 -0.00037180
 11   H            X  0.02839392  0.00853644  0.00373194  0.02758515  0.00036783
                   Y  0.03288441  0.00997802  0.00417000  0.03798443  0.00042270
                   Z  0.03969989  0.01198673  0.00504292  0.04144521  0.00067744
 12   H            X  0.00951318  0.00223801  0.00272146  0.00731018  0.00000599
                   Y -0.05082076 -0.01205514 -0.01151518 -0.03221442  0.00067028
                   Z  0.07940534  0.01844985  0.01658603  0.04928332 -0.00102626
 13   H            X -0.06946118  0.07335026  0.60079423 -0.04269964 -0.00262692
                   Y -0.04476264  0.04756524  0.38837974 -0.02802511 -0.00143306
                   Z  0.06995356 -0.07274872 -0.60031731  0.04265085  0.00234592
 14   H            X -0.00201164  0.11999030 -0.01540747  0.00143744 -0.11560982
                   Y  0.00609874 -0.36569588  0.04685020 -0.00441585  0.33652935
                   Z -0.00678675  0.42842234 -0.05603691  0.00533737 -0.40317993
 15   H            X -0.00392927  0.23090735 -0.02726701  0.00286652  0.64173774
                   Y -0.00216476  0.12108281 -0.01423291  0.00143958  0.33609777
                   Z  0.00154832 -0.09109104  0.01086818 -0.00115240 -0.23924419
 16   H            X -0.00432416  0.27660765 -0.03295642  0.00314764  0.05718950
                   Y -0.00580591  0.36008237 -0.04274127  0.00423886  0.07251157
                   Z -0.00832169  0.51647245 -0.06107858  0.00598297  0.11171982
 17   B            X  0.00022914 -0.00014969 -0.00053235  0.00017175 -0.00004690
                   Y -0.00040052  0.00034027  0.00124776 -0.00014389 -0.00009729
                   Z -0.00003611 -0.00021024 -0.00109310 -0.00001681  0.00011145
 18   H            X  0.00041436 -0.00035221 -0.00312566 -0.00013369 -0.00012039
                   Y  0.00118334 -0.00182678 -0.00496731  0.00037941  0.00171874
                   Z  0.00043562  0.00057321 -0.00310384  0.00029965 -0.00058801
 19   H            X -0.00165657  0.00086058  0.00148964 -0.00131270  0.00026433
                   Y  0.00289381 -0.00057758 -0.00177424  0.00059496  0.00009109
                   Z  0.00102976  0.00023999  0.00054995  0.00049958 -0.00015353
 20   H            X -0.00102494  0.00058535  0.00241260 -0.00116562  0.00103162
                   Y  0.00020664 -0.00026332  0.00070349 -0.00000299 -0.00062342
                   Z  0.00099403 -0.00052892 -0.00251989  0.00084694 -0.00100369

 TRANS. SAYVETZ    X -0.00000002 -0.00000014  0.00000014  0.00000006 -0.00000004
                   Y -0.00000002 -0.00000019 -0.00000012 -0.00000004 -0.00000005
                   Z -0.00000002  0.00000008  0.00000034  0.00000001  0.00000001
               TOTAL  0.00000004  0.00000025  0.00000039  0.00000007  0.00000006

   ROT. SAYVETZ    X -0.00010002  0.00004864  0.00053481 -0.00003625  0.00003981
                   Y  0.00016160 -0.00018779 -0.00158906  0.00004789 -0.00000031
                   Z  0.00007726 -0.00008146 -0.00065106  0.00006839  0.00000118
               TOTAL  0.00020515  0.00021040  0.00179861  0.00009102  0.00003983

 REFERENCE ON SAYVETZ CONDITIONS - A. SAYVETZ, J.CHEM.PHYS., 7, 383-389(1939).

 NOTE - THE MODES J,K ARE ORTHONORMALIZED ACCORDING TO
 SUM ON I   M(I) * (X(I,J)*X(I,K) + Y(I,J)*Y(I,K) + Z(I,J)*Z(I,K)) = DELTA(J,K)

  MODE FREQ(CM**-1)  SYMMETRY  RED. MASS  IR INTENS.
     1      52.938    A        2.737107    0.139546
     2      42.855    A        3.057329    0.067411
     3       5.152    A        3.148937    0.020331
     4       0.002    A        4.805554    0.000000
     5       0.004    A        4.805591    0.000000
     6       0.016    A        4.805867    0.000000
     7     121.228    A        1.108104    0.083840
     8     190.505    A        1.566559    0.016670
     9     216.020    A        1.267235    0.042593
    10     265.720    A        1.823929    0.205910
    11     314.137    A        2.945721    0.507717
    12     359.532    A        2.280687    0.093304
    13     376.672    A        2.639437    0.229905
    14     439.499    A        3.422280    0.198982
    15     550.333    A        2.867754    1.210941
    16     652.477    A        3.477030    0.021771
    17     757.458    A        2.167498    0.033322
    18     900.119    A        1.238832    0.574109
    19     938.620    A        1.778618    0.223049
    20    1010.697    A        2.307977    0.101546
    21    1046.601    A        1.326362    0.081901
    22    1059.800    A        1.418331    0.050541
    23    1091.121    A        2.050206    0.043316
    24    1127.428    A        1.701686    0.053842
    25    1145.908    A        1.231450    0.145276
    26    1206.372    A        1.322318    0.346884
    27    1239.876    A        1.545285    0.147059
    28    1251.073    A        1.271553    0.147809
    29    1297.132    A        1.670819    0.009063
    30    1369.443    A        1.265375    0.408764
    31    1384.846    A        1.806928    0.013612
    32    1458.575    A        1.176666    2.477242
    33    1470.959    A        1.197305    1.951406
    34    1486.193    A        1.302579    0.015394
    35    1503.534    A        1.448035    0.023590
    36    1542.688    A        1.090371    0.341323
    37    1566.607    A        1.071069    0.248808
    38    1617.385    A        1.804713    0.076909
    39    1626.505    A        1.721557    0.002492
    40    1641.337    A        1.897109    0.027962
    41    1712.619    A        1.321012    0.017811
    42    1792.866    A        1.086531    0.089216
    43    1797.659    A        1.092756    0.040879
    44    1800.661    A        1.061474    0.113572
    45    1811.176    A        1.107401    0.003863
    46    1827.994    A        1.127190    0.007878
    47    1904.302    A        4.930241    0.235653
    48    3071.124    A        1.026845    0.100044
    49    3220.161    A        1.112644    0.266684
    50    3284.649    A        1.128482    0.814249
    51    3572.845    A        1.039246    0.009621
    52    3608.336    A        1.067120    0.009010
    53    3608.981    A        1.067525    0.045534
    54    3633.479    A        1.068323    0.010063
    55    3729.587    A        1.109772    0.004769
    56    3733.705    A        1.110414    0.002899
    57    3742.246    A        1.106921    0.021487
    58    3745.903    A        1.099598    0.466051
    59    3752.129    A        1.111644    0.008294
    60    3773.092    A        1.110334    0.030807

     -------------------------------
     THERMOCHEMISTRY AT T=  298.15 K
     -------------------------------

 USING IDEAL GAS, RIGID ROTOR, HARMONIC NORMAL MODE APPROXIMATIONS.
 P=  1.01325E+05 PASCAL.
 ALL FREQUENCIES ARE SCALED BY   1.00000
 THE MOMENTS OF INERTIA ARE (IN AMU*BOHR**2)
            467.32204           748.51193           917.22535
 THE ROTATIONAL SYMMETRY NUMBER IS  1.0
 THE ROTATIONAL CONSTANTS ARE (IN GHZ)
      3.85834     2.40890     1.96581
      7 -     60 VIBRATIONAL MODES ARE USED IN THERMOCHEMISTRY.
 THE HARMONIC ZERO POINT ENERGY IS (SCALED BY   1.000)
        0.212667 HARTREE/MOLECULE    46674.954660 CM**-1/MOLECULE 
      133.450526 KCAL/MOL              558.357000 KJ/MOL

               Q               LN Q
 ELEC.     1.00000E+00       0.000000
 TRANS.    3.70351E+07      17.427377
 ROT.      2.02762E+05      12.219789
 VIB.      2.11009E+01       3.049316
 TOT.      1.58453E+14      32.696482

              E         H         G         CV        CP        S
           KJ/MOL    KJ/MOL    KJ/MOL   J/MOL-K   J/MOL-K   J/MOL-K
 ELEC.      0.000     0.000     0.000     0.000     0.000     0.000
 TRANS.     3.718     6.197   -43.201    12.472    20.786   165.684
 ROT.       3.718     3.718   -30.292    12.472    12.472   114.072
 VIB.     569.986   569.986   550.798    86.499    86.499    64.357
 TOTAL    577.423   579.902   477.304   111.442   119.757   344.114
 VIB. THERMAL CORRECTION E(T)-E(0) = H(T)-H(0) =     11629.073 J/MOL

              E         H         G         CV        CP        S
         KCAL/MOL  KCAL/MOL  KCAL/MOL CAL/MOL-K CAL/MOL-K CAL/MOL-K
 ELEC.      0.000     0.000     0.000     0.000     0.000     0.000
 TRANS.     0.889     1.481   -10.325     2.981     4.968    39.600
 ROT.       0.889     0.889    -7.240     2.981     2.981    27.264
 VIB.     136.230   136.230   131.644    20.674    20.674    15.382
 TOTAL    138.007   138.600   114.078    26.635    28.623    82.245
 VIB. THERMAL CORRECTION E(T)-E(0) = H(T)-H(0) =      2779.415 CAL/MOL

     *******************************************************
     * THIS IS NOT A STATIONARY POINT ON THE MOLECULAR PES *
     *     THE VIBRATIONAL ANALYSIS IS NOT VALID !!!       *
     *******************************************************
 ......END OF NORMAL COORDINATE ANALYSIS......
 STEP CPU TIME =     0.01 TOTAL CPU TIME =        120.1 (      2.0 MIN)
 TOTAL WALL CLOCK TIME=        121.3 SECONDS, CPU UTILIZATION IS    99.08%
               580000  WORDS OF DYNAMIC MEMORY USED
 EXECUTION OF GAMESS TERMINATED NORMALLY Sun Nov  7 13:47:08 2021
 DDI: 263640 bytes (0.3 MB / 0 MWords) used by master data server.

 ----------------------------------------
 CPU timing information for all processes
 ========================================
 0: 117.830 + 2.329 = 120.160
 ----------------------------------------
 ddikick.x: exited gracefully.
----- accounting info -----
Files used on the master node chemcompute-node-0.novalocal were:
-rw-r--r--. 1 chemcomp chemcomp     1333 Nov  7 13:45 /scratch/302531/337600.F05
-rw-rw-r--. 1 chemcomp chemcomp  8100720 Nov  7 13:46 /scratch/302531/337600.F08
-rw-rw-r--. 1 chemcomp chemcomp 85196800 Nov  7 13:47 /scratch/302531/337600.F10
-rw-rw-r--. 1 chemcomp chemcomp   564960 Nov  7 13:47 /scratch/302531/337600.F18
Sun Nov  7 13:47:12 UTC 2021
0.161u 0.100s 2:05.58 0.2%	0+0k 8+224io 0pf+0w
Finishing Up...
Looking for IR data...
Looking for Raman data...
vibramans not found
Looking for thermodynamics data...
Looking for UV-Vis data...
302531
