----- GAMESS execution script 'rungms' -----
This job is running on host chemcompute-node-0.novalocal
under operating system Linux at Sat Nov 13 19:23:53 UTC 2021
SLURM has assigned the following compute nodes to this run:
chemcompute-node-0
Available scratch disk space (Kbyte units) at beginning of the job is
Filesystem     1K-blocks     Used Available Use% Mounted on
/dev/sda1       62903276 16656372  46246904  27% /
GAMESS temporary binary files will be written to /scratch/306114
GAMESS supplementary output files will be written to /data/slurm/342016
Copying input file 342016.inp to your run's scratch directory...
The generated host list is
chemcompute-node-0.novalocal

 Distributed Data Interface kickoff program.
 Initiating 1 compute processes on 1 nodes to run the following command:
 /data/gamess-2019R1-ddi/gamess.00.x 342016 

          ******************************************************
          *         GAMESS VERSION = 30 JUN 2019 (R1)          *
          *             FROM IOWA STATE UNIVERSITY             *
          * M.W.SCHMIDT, K.K.BALDRIDGE, J.A.BOATZ, S.T.ELBERT, *
          *   M.S.GORDON, J.H.JENSEN, S.KOSEKI, N.MATSUNAGA,   *
          *          K.A.NGUYEN, S.J.SU, T.L.WINDUS,           *
          *       TOGETHER WITH M.DUPUIS, J.A.MONTGOMERY       *
          *         J.COMPUT.CHEM.  14, 1347-1363(1993)        *
          **************** 64 BIT LINUX VERSION ****************

  SINCE 1993, STUDENTS AND POSTDOCS WORKING AT IOWA STATE UNIVERSITY
  AND ALSO IN THEIR VARIOUS JOBS AFTER LEAVING ISU HAVE MADE IMPORTANT
  CONTRIBUTIONS TO THE CODE:
     IVANA ADAMOVIC, CHRISTINE AIKENS, YURI ALEXEEV, POOJA ARORA,
     ANDREY ASADCHEV, ROB BELL, PRADIPTA BANDYOPADHYAY, JONATHAN BENTZ,
     COLLEEN BERTONI, BRETT BODE, KURT BRORSEN, CALEB CARLIN, GALINA CHABAN,
     WEI CHEN, CHEOL HO CHOI, PAUL DAY, ALBERT DEFUSCO, NUWAN DESILVA,
     TIM DUDLEY, DMITRI FEDOROV, ALEX FINDLATER, GRAHAM FLETCHER, 
     MARK FREITAG, KURT GLAESEMANN, ANASTASIA GUNINA,
     DAN KEMP, GRANT MERRILL, NORIYUKI MINEZAWA, JONATHAN MULLIN,
     TAKESHI NAGATA, SEAN NEDD, HEATHER NETZLOFF, BOSILJKA NJEGIC, RYAN OLSON,
     MIKE PAK, BUU PHAM,
     SPENCER PRUITT, LUKE ROSKOP, JIM SHOEMAKER, LYUDMILA SLIPCHENKO,
     TONY SMITH, SAROM SOK LEANG, JIE SONG, TETSUYA TAKETSUGU, SIMON WEBB,
     PENG XU, SOOHAENG YOO, FEDERICO ZAHARIEV

  ADDITIONAL CODE HAS BEEN PROVIDED BY COLLABORATORS IN OTHER GROUPS:
     IOWA STATE UNIVERSITY:
          JOE IVANIC, AARON WEST, LAIMUTIS BYTAUTAS, KLAUS RUEDENBERG
     UNIVERSITY OF TOKYO: KIMIHIKO HIRAO, TAKAHITO NAKAJIMA,
          TAKAO TSUNEDA, MUNEAKI KAMIYA, SUSUMU YANAGISAWA,
          KIYOSHI YAGI, MAHITO CHIBA, SEIKEN TOKURA, NAOAKI KAWAKAMI
     UNIVERSITY OF AARHUS: FRANK JENSEN
     UNIVERSITY OF IOWA: VISVALDAS KAIRYS, HUI LI
     NATIONAL INST. OF STANDARDS AND TECHNOLOGY: WALT STEVENS, DAVID GARMER
     UNIVERSITY OF PISA: BENEDETTA MENNUCCI, JACOPO TOMASI
     UNIVERSITY OF MEMPHIS: HENRY KURTZ, PRAKASHAN KORAMBATH
     UNIVERSITY OF ALBERTA: TOBY ZENG, MARIUSZ KLOBUKOWSKI
     UNIVERSITY OF NEW ENGLAND: MARK SPACKMAN
     MIE UNIVERSITY: HIROAKI UMEDA
     NAT. INST. OF ADVANCED INDUSTRIAL SCIENCE AND TECHNOLOGY: KAZUO KITAURA
     MICHIGAN STATE UNIVERSITY:
          KAROL KOWALSKI, MARTA WLOCH, JEFFREY GOUR, JESSE LUTZ,
          WEI LI, JUN SHEN, J. EMILIANO DEUSTUA, PIOTR PIECUCH
     UNIVERSITY OF MINNESOTA:
          YINAN SHU
     UNIVERSITY OF SILESIA: MONIKA MUSIAL, STANISLAW KUCHARSKI
     FACULTES UNIVERSITAIRES NOTRE-DAME DE LA PAIX:
          OLIVIER QUINET, BENOIT CHAMPAGNE
     UNIVERSITY OF CALIFORNIA - SANTA BARBARA: BERNARD KIRTMAN
     INSTITUTE FOR MOLECULAR SCIENCE:
          KAZUYA ISHIMURA, MICHIO KATOUDA, AND SHIGERU NAGASE
     UNIVERSITY OF NOTRE DAME: ANNA POMOGAEVA, DAN CHIPMAN
     KYUSHU UNIVERSITY:
          HARUYUKI NAKANO,
          FENG LONG GU, JACEK KORCHOWIEC, MARCIN MAKOWSKI, AND YURIKO AOKI,
          HIROTOSHI MORI AND EISAKU MIYOSHI
     PENNSYLVANIA STATE UNIVERSITY:
          TZVETELIN IORDANOV, CHET SWALINA, JONATHAN SKONE,
          SHARON HAMMES-SCHIFFER
     WASEDA UNIVERSITY:
          MASATO KOBAYASHI, TOMOKO AKAMA, TSUGUKI TOUMA,
          TAKESHI YOSHIKAWA, YASUHIRO IKABATA, JUNJI SEINO,
          YUYA NAKAJIMA, HIROMI NAKAI
     NANJING UNIVERSITY: SHUHUA LI
     UNIVERSITY OF NEBRASKA:
          PEIFENG SU, DEJUN SI, NANDUN THELLAMUREGE, YALI WANG, HUI LI
     UNIVERSITY OF ZURICH: ROBERTO PEVERATI, KIM BALDRIDGE
     N. COPERNICUS UNIVERSITY AND JACKSON STATE UNIVERSITY:
          MARIA BARYSZ
     UNIVERSITY OF COPENHAGEN: Jimmy Kromann, CASPER STEINMANN
     TOKYO INSTITUTE OF TECHNOLOGY: HIROYA NAKATA
     NAGOYA UNIVERSITY: YOSHIO NISHIMOTO, STEPHAN IRLE
     MOSCOW STATE UNIVERSITY: VLADIMIR MIRONOV
     A.N.NESMEYANOV INSTITUTE OF ORGANOELEMENT COMPOUNDS OF RUSSIAN ACADEMY OF SCIENCES:
          IGOR S. GERASIMOV

 EXECUTION OF GAMESS BEGUN Sat Nov 13 19:23:53 2021

            ECHO OF THE FIRST FEW INPUT CARDS -
 INPUT CARD>!File created by the GAMESS Input Deck Generator Plugin for Avogadro            
 INPUT CARD> $BASIS GBASIS=STO NGAUSS=3 $END                                                
 INPUT CARD> $CONTRL SCFTYP=RHF RUNTYP=SADPOINT $END                                        
 INPUT CARD> $STATPT hssend=.t. OPTTOL=0.0005 NSTEP=50 $END                                 
 INPUT CARD> $STATPT HESS=calc ihrep=5 $END                                                 
 INPUT CARD> $FORCE nvib=2 $END                                                             
 INPUT CARD> $ZMAT DLC=.t. auto=.t. nonvdw(1)=1,6,3,4,4,5,5,6,1,2,2,3 $END                  
 INPUT CARD>!$ZMAT IFZMAT(1)=1,1,6,1,3,4 fvalue(1)=2.00,2.00 $END                           
 INPUT CARD>                                                                                
 INPUT CARD>                                                                                
 INPUT CARD> $DATA                                                                          
 INPUT CARD>Title                                                                           
 INPUT CARD>C1                                                                              
 INPUT CARD>C     6.0     3.92327809    -1.76077604    -0.99755520                          
 INPUT CARD>C     6.0     2.95636082    -1.44765186    -0.03527838                          
 INPUT CARD>C     6.0     2.72933173    -0.10983370     0.30779770                          
 INPUT CARD>C     6.0     4.45942545     0.57276398     1.04321337                          
 INPUT CARD>C     6.0     5.34427881    -0.50894052     0.95742857                          
 INPUT CARD>C     6.0     5.64054251    -0.98421532    -0.32825935                          
 INPUT CARD>C     6.0     5.85620975     0.08044937    -1.37252939                          
 INPUT CARD>C     6.0     5.43170977     1.31641662    -1.20342052                          
 INPUT CARD>C     6.0     4.68493080     1.71894014     0.04742059                          
 INPUT CARD>O     8.0     4.28709650     2.85825539     0.25104618                          
 INPUT CARD>H     1.0     4.15927458    -2.80834150    -1.15334880                          
 INPUT CARD>H     1.0     3.91830039    -1.19175446    -1.91916239                          
 INPUT CARD>H     1.0     2.75668859    -2.19282722     0.72603673                          
 INPUT CARD>H     1.0     2.65116882     0.60684937    -0.50111032                          
 INPUT CARD>H     1.0     2.03940558     0.09873189     1.11843967                          
 INPUT CARD>H     1.0     4.17052364     0.91599500     2.03240585                          
 INPUT CARD>H     1.0     5.43809128    -1.18142271     1.80135477                          
 INPUT CARD>H     1.0     6.30422878    -1.83910453    -0.41418329                          
 INPUT CARD>H     1.0     6.38108778    -0.21479861    -2.27453899                          
 INPUT CARD>H     1.0     5.61075830     2.09278297    -1.93560374                          
 INPUT CARD> $END                                                                           
    1000000 WORDS OF MEMORY AVAILABLE

     BASIS OPTIONS
     -------------
     GBASIS=STO          IGAUSS=       3      POLAR=NONE    
     NDFUNC=       0     NFFUNC=       0     DIFFSP=       F
     NPFUNC=       0      DIFFS=       F     BASNAM=        


     RUN TITLE
     ---------
 Title                                                                           

 THE POINT GROUP OF THE MOLECULE IS C1      
 THE ORDER OF THE PRINCIPAL AXIS IS     0

 ATOM      ATOMIC                      COORDINATES (BOHR)
           CHARGE         X                   Y                   Z
 C           6.0     7.4139205637       -3.3273842413       -1.8851059856
 C           6.0     5.5867118706       -2.7356653410       -0.0666664715
 C           6.0     5.1576890993       -0.2075555972        0.5816533127
 C           6.0     8.4270921632        1.0823669778        1.9713874160
 C           6.0    10.0992225529       -0.9617581268        1.8092776501
 C           6.0    10.6590797660       -1.8598972677       -0.6203202244
 C           6.0    11.0666317541        0.1520272652       -2.5937044572
 C           6.0    10.2644431101        2.4876666975       -2.2741350308
 C           6.0     8.8532354834        3.2483258539        0.0896119213
 O           8.0     8.1014376679        5.4013194900        0.4744084905
 H           1.0     7.8598892639       -5.3069959149       -2.1795132003
 H           1.0     7.4045140747       -2.2520893740       -3.6266910430
 H           1.0     5.2093860686       -4.1438425842        1.3720104767
 H           1.0     5.0099826170        1.1467790251       -0.9469611944
 H           1.0     3.8539177240        0.1865762183        2.1135445101
 H           1.0     7.8811469049        1.7309795561        3.8406901523
 H           1.0    10.2765024154       -2.2325651976        3.4040669220
 H           1.0    11.9132649581       -3.4754036245       -0.7826929268
 H           1.0    12.0585074078       -0.4059105154       -4.2982554395
 H           1.0    10.6027957703        3.9547863651       -3.6577606894

          INTERNUCLEAR DISTANCES (ANGS.)
          ------------------------------

                1 C          2 C          3 C          4 C          5 C     

   1 C       0.0000000    1.3996258 *  2.4197241 *  3.1460450    2.7218186 *
   2 C       1.3996258 *  0.0000000    1.3996431 *  2.7394211 *  2.7511449 *
   3 C       2.4197241 *  1.3996431 *  0.0000000    2.0000000 *  2.7238309 *
   4 C       3.1460450    2.7394211 *  2.0000000 *  0.0000000    1.4001461 *
   5 C       2.7218186 *  2.7511449 *  2.7238309 *  1.4001461 *  0.0000000  
   6 C       2.0000001 *  2.7396063 *  3.1055209    2.3875007 *  1.4023736 *
   7 C       2.6957265 *  3.5401211    3.5548661    2.8335831 *  2.4572663 *
   8 C       3.4331999    3.8899850    3.4089320    2.5584605 *  2.8299897 *
   9 C       3.7122115    3.6086144    2.6900888 *  1.5349839 *  2.4952568 *
  10 O       4.7986269    4.5159358    3.3525221    2.4250149 *  3.5992525  
  11 H       1.0850619 *  2.1327352 *  3.3855029    4.0431238    3.3386915  
  12 H       1.0831298 *  2.1306877 *  2.7465524 *  3.4902739    3.2824419  
  13 H       2.1256454 *  1.0838616 *  2.1247433 *  3.2631899    3.0959069  
  14 H       2.7331977 *  2.1286420 *  1.0835480 *  2.3782114 *  3.2596264  
  15 H       3.3888316    2.1361589 *  1.0847295 *  2.4671566 *  3.3641310  
  16 H       4.0505429    3.3669476    2.4705530 *  1.0861738 *  2.1362862 *
  17 H       3.2348425    3.0988845    3.2735904    2.1470296 *  1.0831641 *
  18 H       2.4526280 *  3.3919057    4.0362759    3.3681470    2.1382608 *
  19 H       3.1719966    4.2735196    4.4737906    3.9141438    3.4069204  
  20 H       4.3101556    4.8157804    4.2646207    3.5368597    3.8999503  

                6 C          7 C          8 C          9 C         10 O     

   1 C       2.0000001 *  2.6957265 *  3.4331999    3.7122115    4.7986269  
   2 C       2.7396063 *  3.5401211    3.8899850    3.6086144    4.5159358  
   3 C       3.1055209    3.5548661    3.4089320    2.6900888 *  3.3525221  
   4 C       2.3875007 *  2.8335831 *  2.5584605 *  1.5349839 *  2.4250149 *
   5 C       1.4023736 *  2.4572663 *  2.8299897 *  2.4952568 *  3.5992525  
   6 C       0.0000000    1.5068255 *  2.4703088 *  2.8916048 *  4.1148502  
   7 C       1.5068255 *  0.0000000    1.3177303 *  2.4643061 *  3.5797095  
   8 C       2.4703088 *  1.3177303 *  0.0000000    1.5113926 *  2.4089167 *
   9 C       2.8916048 *  2.4643061 *  1.5113926 *  0.0000000    1.2238361 *
  10 O       4.1148502    3.5797095    2.4089167 *  1.2238361 *  0.0000000  
  11 H       2.4904545 *  3.3574904    4.3168540    4.7132198    5.8394335  
  12 H       2.3537551 *  2.3817647 *  3.0155624    3.5954574    4.6095982  
  13 H       3.2998328    4.3793604    4.8159460    4.4136789    5.2991697  
  14 H       3.3908287    3.3628493    2.9543414 *  2.3819781 *  2.8828506 *
  15 H       4.0291314    4.5577687    4.2873673    3.2819141    3.6632576  
  16 H       3.3681590    3.8901489    3.4959262    2.2021585 *  2.6380309 *
  17 H       2.1482862 *  3.4410296    3.9074181    3.4721233    4.4774150  
  18 H       1.0856786 *  2.1917654 *  3.3677141    3.9363544    5.1552442  
  19 H       2.2200031 *  1.0845689 *  2.0960042 *  3.4652259    4.4952242  
  20 H       3.4716511    2.1039928 *  1.0820792 *  2.2202028 *  2.6682328 *

               11 H         12 H         13 H         14 H         15 H     

   1 C       1.0850619 *  1.0831298 *  2.1256454 *  2.7331977 *  3.3888316  
   2 C       2.1327352 *  2.1306877 *  1.0838616 *  2.1286420 *  2.1361589 *
   3 C       3.3855029    2.7465524 *  2.1247433 *  1.0835480 *  1.0847295 *
   4 C       4.0431238    3.4902739    3.2631899    2.3782114 *  2.4671566 *
   5 C       3.3386915    3.2824419    3.0959069    3.2596264    3.3641310  
   6 C       2.4904545 *  2.3537551 *  3.2998328    3.3908287    4.0291314  
   7 C       3.3574904    2.3817647 *  4.3793604    3.3628493    4.5577687  
   8 C       4.3168540    3.0155624    4.8159460    2.9543414 *  4.2873673  
   9 C       4.7132198    3.5954574    4.4136789    2.3819781 *  3.2819141  
  10 O       5.8394335    4.6095982    5.2991697    2.8828506 *  3.6632576  
  11 H       0.0000000    1.8049633 *  2.4244990 *  3.7898980    4.2551079  
  12 H       1.8049633 *  0.0000000    3.0575426    2.6175312 *  3.7977134  
  13 H       2.4244990 *  3.0575426    0.0000000    3.0586293    2.4330471 *
  14 H       3.7898980    2.6175312 *  3.0586293    0.0000000    1.8042671 *
  15 H       4.2551079    3.7977134    2.4330471 *  1.8042671 *  0.0000000  
  16 H       4.9010041    4.4856567    3.6565428    2.9703054 *  2.4586414 *
  17 H       3.6072857    4.0189699    3.0609097    4.0331377    3.6954341  
  18 H       2.4671065 *  2.8942492 *  3.7430286    4.3971688    4.9287788  
  19 H       3.5944382    2.6732110 *  5.1041475    4.2109916    5.5191313  
  20 H       5.1710491    3.6949791    5.7962487    3.6090082    5.1047019  

               16 H         17 H         18 H         19 H         20 H     

   1 C       4.0505429    3.2348425    2.4526280 *  3.1719966    4.3101556  
   2 C       3.3669476    3.0988845    3.3919057    4.2735196    4.8157804  
   3 C       2.4705530 *  3.2735904    4.0362759    4.4737906    4.2646207  
   4 C       1.0861738 *  2.1470296 *  3.3681470    3.9141438    3.5368597  
   5 C       2.1362862 *  1.0831641 *  2.1382608 *  3.4069204    3.8999503  
   6 C       3.3681590    2.1482862 *  1.0856786 *  2.2200031 *  3.4716511  
   7 C       3.8901489    3.4410296    2.1917654 *  1.0845689 *  2.1039928 *
   8 C       3.4959262    3.9074181    3.3677141    2.0960042 *  1.0820792 *
   9 C       2.2021585 *  3.4721233    3.9363544    3.4652259    2.2202028 *
  10 O       2.6380309 *  4.4774150    5.1552442    4.4952242    2.6682328 *
  11 H       4.9010041    3.6072857    2.4671065 *  3.5944382    5.1710491  
  12 H       4.4856567    4.0189699    2.8942492 *  2.6732110 *  3.6949791  
  13 H       3.6565428    3.0609097    3.7430286    5.1041475    5.7962487  
  14 H       2.9703054 *  4.0331377    4.3971688    4.2109916    3.6090082  
  15 H       2.4586414 *  3.6954341    4.9287788    5.5191313    5.1047019  
  16 H       0.0000000    2.4615591 *  4.2578245    4.9714245    4.3822604  
  17 H       2.4615591 *  0.0000000    2.4680657 *  4.2937763    4.9714279  
  18 H       4.2578245    2.4680657 *  0.0000000    2.4708704 *  4.2726293  
  19 H       4.9714245    4.2937763    2.4708704 *  0.0000000    2.4562608 *
  20 H       4.3822604    4.9714279    4.2726293    2.4562608 *  0.0000000  

  * ... LESS THAN  3.000


     ATOMIC BASIS SET
     ----------------
 THE CONTRACTED PRIMITIVE FUNCTIONS HAVE BEEN UNNORMALIZED
 THE CONTRACTED BASIS FUNCTIONS ARE NOW NORMALIZED TO UNITY

  SHELL TYPE  PRIMITIVE        EXPONENT          CONTRACTION COEFFICIENT(S)

 C         

      1   S       1            71.6168373    0.154328967295
      1   S       2            13.0450963    0.535328142282
      1   S       3             3.5305122    0.444634542185

      2   L       4             2.9412494   -0.099967229187    0.155916274999
      2   L       5             0.6834831    0.399512826089    0.607683718598
      2   L       6             0.2222899    0.700115468880    0.391957393099

 C         

      3   S       7            71.6168373    0.154328967295
      3   S       8            13.0450963    0.535328142282
      3   S       9             3.5305122    0.444634542185

      4   L      10             2.9412494   -0.099967229187    0.155916274999
      4   L      11             0.6834831    0.399512826089    0.607683718598
      4   L      12             0.2222899    0.700115468880    0.391957393099

 C         

      5   S      13            71.6168373    0.154328967295
      5   S      14            13.0450963    0.535328142282
      5   S      15             3.5305122    0.444634542185

      6   L      16             2.9412494   -0.099967229187    0.155916274999
      6   L      17             0.6834831    0.399512826089    0.607683718598
      6   L      18             0.2222899    0.700115468880    0.391957393099

 C         

      7   S      19            71.6168373    0.154328967295
      7   S      20            13.0450963    0.535328142282
      7   S      21             3.5305122    0.444634542185

      8   L      22             2.9412494   -0.099967229187    0.155916274999
      8   L      23             0.6834831    0.399512826089    0.607683718598
      8   L      24             0.2222899    0.700115468880    0.391957393099

 C         

      9   S      25            71.6168373    0.154328967295
      9   S      26            13.0450963    0.535328142282
      9   S      27             3.5305122    0.444634542185

     10   L      28             2.9412494   -0.099967229187    0.155916274999
     10   L      29             0.6834831    0.399512826089    0.607683718598
     10   L      30             0.2222899    0.700115468880    0.391957393099

 C         

     11   S      31            71.6168373    0.154328967295
     11   S      32            13.0450963    0.535328142282
     11   S      33             3.5305122    0.444634542185

     12   L      34             2.9412494   -0.099967229187    0.155916274999
     12   L      35             0.6834831    0.399512826089    0.607683718598
     12   L      36             0.2222899    0.700115468880    0.391957393099

 C         

     13   S      37            71.6168373    0.154328967295
     13   S      38            13.0450963    0.535328142282
     13   S      39             3.5305122    0.444634542185

     14   L      40             2.9412494   -0.099967229187    0.155916274999
     14   L      41             0.6834831    0.399512826089    0.607683718598
     14   L      42             0.2222899    0.700115468880    0.391957393099

 C         

     15   S      43            71.6168373    0.154328967295
     15   S      44            13.0450963    0.535328142282
     15   S      45             3.5305122    0.444634542185

     16   L      46             2.9412494   -0.099967229187    0.155916274999
     16   L      47             0.6834831    0.399512826089    0.607683718598
     16   L      48             0.2222899    0.700115468880    0.391957393099

 C         

     17   S      49            71.6168373    0.154328967295
     17   S      50            13.0450963    0.535328142282
     17   S      51             3.5305122    0.444634542185

     18   L      52             2.9412494   -0.099967229187    0.155916274999
     18   L      53             0.6834831    0.399512826089    0.607683718598
     18   L      54             0.2222899    0.700115468880    0.391957393099

 O         

     19   S      55           130.7093214    0.154328967295
     19   S      56            23.8088661    0.535328142282
     19   S      57             6.4436083    0.444634542185

     20   L      58             5.0331513   -0.099967229187    0.155916274999
     20   L      59             1.1695961    0.399512826089    0.607683718598
     20   L      60             0.3803890    0.700115468880    0.391957393099

 H         

     21   S      61             3.4252509    0.154328967295
     21   S      62             0.6239137    0.535328142282
     21   S      63             0.1688554    0.444634542185

 H         

     22   S      64             3.4252509    0.154328967295
     22   S      65             0.6239137    0.535328142282
     22   S      66             0.1688554    0.444634542185

 H         

     23   S      67             3.4252509    0.154328967295
     23   S      68             0.6239137    0.535328142282
     23   S      69             0.1688554    0.444634542185

 H         

     24   S      70             3.4252509    0.154328967295
     24   S      71             0.6239137    0.535328142282
     24   S      72             0.1688554    0.444634542185

 H         

     25   S      73             3.4252509    0.154328967295
     25   S      74             0.6239137    0.535328142282
     25   S      75             0.1688554    0.444634542185

 H         

     26   S      76             3.4252509    0.154328967295
     26   S      77             0.6239137    0.535328142282
     26   S      78             0.1688554    0.444634542185

 H         

     27   S      79             3.4252509    0.154328967295
     27   S      80             0.6239137    0.535328142282
     27   S      81             0.1688554    0.444634542185

 H         

     28   S      82             3.4252509    0.154328967295
     28   S      83             0.6239137    0.535328142282
     28   S      84             0.1688554    0.444634542185

 H         

     29   S      85             3.4252509    0.154328967295
     29   S      86             0.6239137    0.535328142282
     29   S      87             0.1688554    0.444634542185

 H         

     30   S      88             3.4252509    0.154328967295
     30   S      89             0.6239137    0.535328142282
     30   S      90             0.1688554    0.444634542185

 TOTAL NUMBER OF BASIS SET SHELLS             =   30
 NUMBER OF CARTESIAN GAUSSIAN BASIS FUNCTIONS =   60
 NUMBER OF ELECTRONS                          =   72
 CHARGE OF MOLECULE                           =    0
 SPIN MULTIPLICITY                            =    1
 NUMBER OF OCCUPIED ORBITALS (ALPHA)          =   36
 NUMBER OF OCCUPIED ORBITALS (BETA )          =   36
 TOTAL NUMBER OF ATOMS                        =   20
 THE NUCLEAR REPULSION ENERGY IS      509.6740706253

     $CONTRL OPTIONS
     ---------------
 SCFTYP=RHF          RUNTYP=SADPOINT     EXETYP=RUN     
 MPLEVL=       0     CITYP =NONE         CCTYP =NONE         VBTYP =NONE    
 DFTTYP=NONE         TDDFT =NONE    
 MULT  =       1     ICHARG=       0     NZVAR =       0     COORD =UNIQUE  
 PP    =NONE         RELWFN=NONE         LOCAL =NONE         NUMGRD=       F
 ISPHER=      -1     NOSYM =       0     MAXIT =      30     UNITS =ANGS    
 PLTORB=       F     MOLPLT=       F     AIMPAC=       F     FRIEND=        
 NPRINT=       7     IREST =       0     GEOM  =INPUT   
 NORMF =       0     NORMP =       0     ITOL  =      20     ICUT  =       9
 INTTYP=BEST         GRDTYP=BEST         QMTTOL= 1.0E-06

     $SYSTEM OPTIONS
     ---------------
  REPLICATED MEMORY=     1000000 WORDS (ON EVERY NODE).
 DISTRIBUTED MEMDDI=           0 MILLION WORDS IN AGGREGATE,
 MEMDDI DISTRIBUTED OVER   1 PROCESSORS IS           0 WORDS/PROCESSOR.
 TOTAL MEMORY REQUESTED ON EACH PROCESSOR=     1000000 WORDS.
 TIMLIM=      525600.00 MINUTES, OR     365.0 DAYS.
 PARALL= F  BALTYP=  DLB     KDIAG=    0  COREFL= F
 MXSEQ2=     300 MXSEQ3=     150  mem10=         0

          ----------------
          PROPERTIES INPUT
          ----------------

     MOMENTS            FIELD           POTENTIAL          DENSITY
 IEMOM =       1   IEFLD =       0   IEPOT =       0   IEDEN =       0
 WHERE =COMASS     WHERE =NUCLEI     WHERE =NUCLEI     WHERE =NUCLEI  
 OUTPUT=BOTH       OUTPUT=BOTH       OUTPUT=BOTH       OUTPUT=BOTH    
 IEMINT=       0   IEFINT=       0                     IEDINT=       0
                                                       MORB  =       0
          EXTRAPOLATION IN EFFECT
          SOSCF IN EFFECT
 ORBITAL PRINTING OPTION: NPREO=     1    60     2     1

     -------------------------------
     INTEGRAL TRANSFORMATION OPTIONS
     -------------------------------
     NWORD  =            0
     CUTOFF = 1.0E-09     MPTRAN =       0
     DIRTRF =       F     AOINTS =DUP     

          ----------------------
          INTEGRAL INPUT OPTIONS
          ----------------------
 NOPK  =       1 NORDER=       0 SCHWRZ=       T

     ------------------------------------------
     THE POINT GROUP IS C1 , NAXIS= 0, ORDER= 1
     ------------------------------------------

     DIMENSIONS OF THE SYMMETRY SUBSPACES ARE
 A   =   60

 ..... DONE SETTING UP THE RUN .....
 STEP CPU TIME =     0.02 TOTAL CPU TIME =          0.0 (      0.0 MIN)
 TOTAL WALL CLOCK TIME=          0.0 SECONDS, CPU UTILIZATION IS    40.00%


          -----------------------------
          STATIONARY POINT LOCATION RUN
          -----------------------------

 OBTAINING INITIAL HESSIAN, HESS=CALC    

     ---------------------------------
     HESSIAN MATRIX CONTROL PARAMETERS
     ---------------------------------
     METHOD=ANALYTIC   NVIB  =       2   VIBSIZ= 0.01000
     RDHESS=       F   PURIFY=       F   PRTIFC=       F
     VIBANL=       F   DECOMP=       F   PROJCT=       F
     SCLFAC= 1.00000   PRTSCN=       F   NPRT  =       0
     PULCOR=       F   NPUN  =       0   REDOVB=       T
     HSSTYP=GENERAL 
 Old integral subroutine is used

     ------------------------------
     CPHF RESPONSE SOLUTION OPTIONS
     ------------------------------
     POLAR  =       F     NWORD  =       0
     CPHF   =AO      

          ********************
          1 ELECTRON INTEGRALS
          ********************
 ...... END OF ONE-ELECTRON INTEGRALS ......
 STEP CPU TIME =     0.03 TOTAL CPU TIME =          0.0 (      0.0 MIN)
 TOTAL WALL CLOCK TIME=          0.1 SECONDS, CPU UTILIZATION IS    71.43%

          -------------
          GUESS OPTIONS
          -------------
          GUESS =HUCKEL            NORB  =       0          NORDER=       0
          MIX   =       F          PRTMO =       F          PUNMO =       F
          TOLZ  = 1.0E-08          TOLE  = 1.0E-05
          SYMDEN=       F          PURIFY=       F

 INITIAL GUESS ORBITALS GENERATED BY HUCKEL   ROUTINE.
 HUCKEL GUESS REQUIRES     53820 WORDS.

 SYMMETRIES FOR INITIAL GUESS ORBITALS FOLLOW.   BOTH SET(S).
    36 ORBITALS ARE OCCUPIED (   10 CORE ORBITALS).
    11=A       12=A       13=A       14=A       15=A       16=A       17=A   
    18=A       19=A       20=A       21=A       22=A       23=A       24=A   
    25=A       26=A       27=A       28=A       29=A       30=A       31=A   
    32=A       33=A       34=A       35=A       36=A       37=A       38=A   
    39=A       40=A       41=A       42=A       43=A       44=A       45=A   
    46=A   
 ...... END OF INITIAL ORBITAL SELECTION ......
 STEP CPU TIME =     0.02 TOTAL CPU TIME =          0.1 (      0.0 MIN)
 TOTAL WALL CLOCK TIME=          0.1 SECONDS, CPU UTILIZATION IS    77.78%

                    ----------------------
                    AO INTEGRAL TECHNOLOGY
                    ----------------------
     S,P,L SHELL ROTATED AXIS INTEGRALS, REPROGRAMMED BY
        KAZUYA ISHIMURA (IMS) AND JOSE SIERRA (SYNSTAR).
     S,P,D,L SHELL ROTATED AXIS INTEGRALS PROGRAMMED BY
        KAZUYA ISHIMURA (INSTITUTE FOR MOLECULAR SCIENCE).
     S,P,D,F,G SHELL TO TOTAL QUARTET ANGULAR MOMENTUM SUM 5,
        ERIC PROGRAM BY GRAHAM FLETCHER (ELORET AND NASA ADVANCED
        SUPERCOMPUTING DIVISION, AMES RESEARCH CENTER).
     S,P,D,F,G,L SHELL GENERAL RYS QUADRATURE PROGRAMMED BY
        MICHEL DUPUIS (PACIFIC NORTHWEST NATIONAL LABORATORY).

          --------------------
          2 ELECTRON INTEGRALS
          --------------------

 THE -PK- OPTION IS OFF, THE INTEGRALS ARE NOT IN SUPERMATRIX FORM.
 STORING   15000 INTEGRALS/RECORD ON DISK, USING 12 BYTES/INTEGRAL.
 TWO ELECTRON INTEGRAL EVALUATION REQUIRES   89821 WORDS OF MEMORY.
 SCHWARZ INEQUALITY OVERHEAD:      1797 INTEGRALS, T=        0.00
 II,JST,KST,LST =  1  1  1  1 NREC =         1 INTLOC =    1
 II,JST,KST,LST =  2  1  1  1 NREC =         1 INTLOC =    2
 II,JST,KST,LST =  3  1  1  1 NREC =         1 INTLOC =   34
 II,JST,KST,LST =  4  1  1  1 NREC =         1 INTLOC =  144
 II,JST,KST,LST =  5  1  1  1 NREC =         1 INTLOC = 1366
 II,JST,KST,LST =  6  1  1  1 NREC =         1 INTLOC = 1964
 II,JST,KST,LST =  7  1  1  1 NREC =         1 INTLOC = 6867
 II,JST,KST,LST =  8  1  1  1 NREC =         1 INTLOC = 8487
 II,JST,KST,LST =  9  1  1  1 NREC =         2 INTLOC = 5912
 II,JST,KST,LST = 10  1  1  1 NREC =         2 INTLOC = 9715
 II,JST,KST,LST = 11  1  1  1 NREC =         4 INTLOC = 5094
 II,JST,KST,LST = 12  1  1  1 NREC =         4 INTLOC =12222
 II,JST,KST,LST = 13  1  1  1 NREC =         7 INTLOC =12366
 II,JST,KST,LST = 14  1  1  1 NREC =         8 INTLOC = 8909
 II,JST,KST,LST = 15  1  1  1 NREC =        13 INTLOC = 6561
 II,JST,KST,LST = 16  1  1  1 NREC =        14 INTLOC = 9302
 II,JST,KST,LST = 17  1  1  1 NREC =        21 INTLOC =13569
 II,JST,KST,LST = 18  1  1  1 NREC =        23 INTLOC = 9515
 II,JST,KST,LST = 19  1  1  1 NREC =        34 INTLOC = 1982
 II,JST,KST,LST = 20  1  1  1 NREC =        35 INTLOC =12611
 II,JST,KST,LST = 21  1  1  1 NREC =        47 INTLOC =13979
 II,JST,KST,LST = 22  1  1  1 NREC =        51 INTLOC = 9382
 II,JST,KST,LST = 23  1  1  1 NREC =        55 INTLOC =13639
 II,JST,KST,LST = 24  1  1  1 NREC =        60 INTLOC = 2627
 II,JST,KST,LST = 25  1  1  1 NREC =        65 INTLOC = 1540
 II,JST,KST,LST = 26  1  1  1 NREC =        70 INTLOC = 2198
 II,JST,KST,LST = 27  1  1  1 NREC =        75 INTLOC = 9025
 II,JST,KST,LST = 28  1  1  1 NREC =        81 INTLOC = 4299
 II,JST,KST,LST = 29  1  1  1 NREC =        87 INTLOC = 2190
 II,JST,KST,LST = 30  1  1  1 NREC =        93 INTLOC = 5050
 SCHWARZ INEQUALITY TEST SKIPPED       24131 INTEGRAL BLOCKS.
 TOTAL NUMBER OF NONZERO TWO-ELECTRON INTEGRALS =             1482794
         99 INTEGRAL RECORDS WERE STORED ON DISK FILE  8.
  ...... END OF TWO-ELECTRON INTEGRALS .....
 STEP CPU TIME =     0.36 TOTAL CPU TIME =          0.4 (      0.0 MIN)
 TOTAL WALL CLOCK TIME=          0.4 SECONDS, CPU UTILIZATION IS    95.56%

          --------------------------
                 RHF SCF CALCULATION
          --------------------------

     NUCLEAR ENERGY =       509.6740706253
     MAXIT =   30     NPUNCH=    2
     EXTRAP=T  DAMP=F  SHIFT=F  RSTRCT=F  DIIS=F  DEM=F  SOSCF=T
     DENSITY MATRIX CONV=  1.00E-05
     SOSCF WILL OPTIMIZE     864 ORBITAL ROTATIONS, SOGTOL=   0.250
     MEMORY REQUIRED FOR RHF ITERS=     59496 WORDS.

 ITER EX DEM     TOTAL ENERGY        E CHANGE  DENSITY CHANGE     ORB. GRAD
   1  0  0     -415.5233190239  -415.5233190239   0.524938032   0.000000000
          ---------------START SECOND ORDER SCF---------------
   2  1  0     -416.0288464890    -0.5055274652   0.291046545   0.064721126
   3  2  0     -416.0582505620    -0.0294040729   0.140699513   0.049270241
   4  3  0     -416.0921770996    -0.0339265377   0.024152601   0.007298460
   5  4  0     -416.0930434304    -0.0008663308   0.005515802   0.002938956
   6  5  0     -416.0931515135    -0.0001080831   0.002236374   0.000763334
   7  6  0     -416.0931640533    -0.0000125398   0.000668591   0.000261697
   8  7  0     -416.0931659080    -0.0000018547   0.000207054   0.000073036
   9  8  0     -416.0931660856    -0.0000001776   0.000132077   0.000023572
  10  9  0     -416.0931661175    -0.0000000318   0.000048626   0.000011428
  11 10  0     -416.0931661225    -0.0000000051   0.000023165   0.000003473
  12 11  0     -416.0931661235    -0.0000000010   0.000008571   0.000001378
  13 12  0     -416.0931661236    -0.0000000001   0.000004546   0.000000512

          -----------------
          DENSITY CONVERGED
          -----------------
     TIME TO FORM FOCK OPERATORS=       0.3 SECONDS (       0.0 SEC/ITER)
     TIME TO SOLVE SCF EQUATIONS=       0.1 SECONDS (       0.0 SEC/ITER)

 FINAL RHF ENERGY IS     -416.0931661236 AFTER  13 ITERATIONS

          ------------
          EIGENVECTORS
          ------------

                      1          2          3          4          5
                  -20.2612   -11.1181   -11.0543   -11.0493   -11.0456
                     A          A          A          A          A   
    1  C  1  S   -0.000000   0.000023  -0.030504  -0.005710  -0.087040
    2  C  1  S    0.000003  -0.000004  -0.003831   0.000015  -0.003057
    3  C  1  X    0.000001   0.000004  -0.002089  -0.000196   0.000135
    4  C  1  Y   -0.000002   0.000013  -0.000980  -0.000161  -0.000101
    5  C  1  Z    0.000001  -0.000007  -0.000874  -0.000176   0.000002
    6  C  2  S   -0.000000   0.000015  -0.000572   0.000062   0.003849
    7  C  2  S    0.000010  -0.000030   0.000351   0.000059  -0.006030
    8  C  2  X   -0.000005   0.000049   0.000194   0.000038   0.001068
    9  C  2  Y    0.000004  -0.000012  -0.000034   0.000044  -0.004288
   10  C  2  Z    0.000007  -0.000037  -0.000144  -0.000018  -0.001340
   11  C  3  S   -0.000005  -0.000222  -0.000699   0.000652   0.958361
   12  C  3  S   -0.000000   0.000304  -0.000021   0.000046   0.035518
   13  C  3  X    0.000023  -0.000226  -0.000070  -0.000003  -0.000428
   14  C  3  Y    0.000038  -0.000083   0.000011   0.000027  -0.000701
   15  C  3  Z    0.000014  -0.000121   0.000031   0.000005  -0.000555
   16  C  4  S   -0.000024  -0.001607  -0.004047  -0.005411  -0.240728
   17  C  4  S    0.000270  -0.005398  -0.000068  -0.000229  -0.011290
   18  C  4  X   -0.000166  -0.000580   0.000000  -0.000079   0.001652
   19  C  4  Y    0.000403  -0.003148   0.000051   0.000026   0.000912
   20  C  4  Z    0.000196   0.002452   0.000184   0.000156   0.000785
   21  C  5  S    0.000004  -0.000277   0.003944  -0.001148  -0.002011
   22  C  5  S    0.000033   0.000070  -0.006880  -0.000015   0.001799
   23  C  5  X   -0.000046  -0.000019  -0.001098  -0.000079  -0.000759
   24  C  5  Y   -0.000024  -0.000021   0.001569  -0.000053   0.000940
   25  C  5  Z    0.000049   0.000001   0.004145   0.000107   0.000086
   26  C  6  S    0.000003  -0.000254   0.991336   0.024217  -0.003129
   27  C  6  S    0.000007  -0.000064   0.036232  -0.004859   0.000117
   28  C  6  X    0.000025   0.000016   0.000975  -0.000593  -0.000160
   29  C  6  Y   -0.000032  -0.000108   0.001124  -0.003042  -0.000080
   30  C  6  Z   -0.000006   0.000011   0.000913   0.002762  -0.000066
   31  C  7  S    0.000005  -0.000272  -0.023421   0.991729  -0.002408
   32  C  7  S    0.000054   0.000111  -0.006870   0.035857  -0.000058
   33  C  7  X    0.000017  -0.000032   0.000518  -0.000610  -0.000021
   34  C  7  Y    0.000046  -0.000033   0.002924   0.001550   0.000001
   35  C  7  Z   -0.000059   0.000078  -0.003133   0.000169   0.000045
   36  C  8  S   -0.000025  -0.001005  -0.001146   0.019708   0.000524
   37  C  8  S    0.000270  -0.005689   0.000345  -0.007398   0.000039
   38  C  8  X   -0.000106   0.002040   0.000036  -0.001477  -0.000051
   39  C  8  Y    0.000501  -0.001287  -0.000154   0.004280  -0.000016
   40  C  8  Z   -0.000042  -0.003346   0.000096   0.000599  -0.000005
   41  C  9  S    0.000548   0.992564   0.000267   0.000342  -0.000396
   42  C  9  S   -0.007195   0.032729  -0.000008   0.000149   0.001522
   43  C  9  X    0.002079  -0.000168  -0.000049  -0.000044  -0.000144
   44  C  9  Y   -0.005941   0.000377   0.000111   0.000146  -0.000785
   45  C  9  Z   -0.001053  -0.000104   0.000077   0.000005   0.000733
   46  O 10  S    0.994267   0.000162   0.000005   0.000013  -0.000003
   47  O 10  S    0.025993  -0.005790  -0.000052  -0.000115  -0.000031
   48  O 10  X    0.001820  -0.000557  -0.000012  -0.000027  -0.000024
   49  O 10  Y   -0.005225   0.001605   0.000032   0.000052   0.000017
   50  O 10  Z   -0.000933   0.000306  -0.000001   0.000027  -0.000043
   51  H 11  S   -0.000002   0.000002   0.000358  -0.000012   0.000509
   52  H 12  S   -0.000002   0.000006   0.000363  -0.000951   0.000576
   53  H 13  S   -0.000002   0.000006  -0.000001   0.000001   0.000038
   54  H 14  S    0.000080  -0.001059   0.000005  -0.000042  -0.006734
   55  H 15  S   -0.000006  -0.000035  -0.000017  -0.000014  -0.006694
   56  H 16  S   -0.000179  -0.000014  -0.000090  -0.000023   0.001824
   57  H 17  S   -0.000020  -0.000052   0.000080  -0.000080  -0.000014
   58  H 18  S   -0.000016  -0.000026  -0.006924  -0.000128   0.000018
   59  H 19  S   -0.000021  -0.000038   0.000240  -0.006826   0.000025
   60  H 20  S   -0.000192   0.000012  -0.000037   0.000011   0.000014

                      6          7          8          9         10
                  -11.0452   -11.0444   -11.0258   -11.0184   -11.0121
                     A          A          A          A          A   
    1  C  1  S    0.987727   0.016730  -0.000217   0.000973  -0.003458
    2  C  1  S    0.035872   0.000642   0.000047   0.000289  -0.007234
    3  C  1  X   -0.001645  -0.000060   0.000010  -0.000070   0.003105
    4  C  1  Y   -0.000244  -0.000089   0.000008  -0.000000  -0.001095
    5  C  1  Z   -0.000210  -0.000033  -0.000053  -0.000065  -0.003270
    6  C  2  S    0.004588   0.000522   0.000105  -0.018460   0.991933
    7  C  2  S   -0.007357  -0.001676   0.000028  -0.001166   0.036727
    8  C  2  X   -0.002976   0.000166   0.000008  -0.000606   0.002213
    9  C  2  Y    0.000713  -0.000943   0.000001  -0.000195   0.001059
   10  C  2  Z    0.003058  -0.000178   0.000006  -0.000310   0.000684
   11  C  3  S    0.080362   0.243952  -0.000271   0.000891  -0.003423
   12  C  3  S    0.003138   0.006242   0.000087   0.000298  -0.007233
   13  C  3  X   -0.000118  -0.002380  -0.000031  -0.000063  -0.000885
   14  C  3  Y   -0.000045  -0.001013   0.000068  -0.000011   0.004419
   15  C  3  Z    0.000051  -0.001097  -0.000030  -0.000035   0.001098
   16  C  4  S   -0.037649   0.961736   0.001492  -0.004618   0.000545
   17  C  4  S   -0.001555   0.034096   0.000248  -0.007297   0.000019
   18  C  4  X    0.000130   0.002227   0.000022  -0.002831  -0.000052
   19  C  4  Y    0.000090   0.000132   0.000041   0.003621   0.000151
   20  C  4  Z    0.000111   0.000581   0.000047   0.000303   0.000030
   21  C  5  S   -0.001020   0.005032  -0.004280   0.991918   0.018699
   22  C  5  S    0.000153  -0.006688  -0.000268   0.036682   0.000198
   23  C  5  X   -0.000129   0.002704  -0.000016  -0.002045   0.000537
   24  C  5  Y    0.000155  -0.003454  -0.000157  -0.000347   0.000267
   25  C  5  Z    0.000047  -0.000358   0.000157  -0.001333   0.000158
   26  C  6  S    0.031294   0.004827   0.000710  -0.003134   0.000405
   27  C  6  S   -0.001560   0.000170   0.000406  -0.007217   0.000020
   28  C  6  X    0.002195   0.000207   0.000094   0.001067   0.000086
   29  C  6  Y    0.001000  -0.000127   0.000049  -0.001520  -0.000058
   30  C  6  Z    0.000819   0.000051  -0.000119  -0.004206  -0.000119
   31  C  7  S    0.004725   0.005146  -0.019190   0.001213  -0.000076
   32  C  7  S    0.000131   0.000116  -0.008919   0.000147   0.000008
   33  C  7  X   -0.000025   0.000105   0.001507  -0.000014  -0.000045
   34  C  7  Y    0.000004  -0.000030  -0.004416  -0.000128   0.000009
   35  C  7  Z   -0.000076  -0.000137  -0.000614  -0.000128  -0.000006
   36  C  8  S    0.000345  -0.001221   0.991968   0.004375  -0.000031
   37  C  8  S    0.000019   0.000065   0.036541   0.000092  -0.000014
   38  C  8  X   -0.000020   0.000011   0.000612  -0.000032  -0.000002
   39  C  8  Y   -0.000012   0.000048  -0.001800   0.000098   0.000003
   40  C  8  Z   -0.000011  -0.000003  -0.000067  -0.000171  -0.000002
   41  C  9  S   -0.000095   0.002579   0.001994   0.000339  -0.000013
   42  C  9  S    0.000239  -0.005468  -0.005878   0.000129  -0.000010
   43  C  9  X   -0.000026   0.000467  -0.002087  -0.000151  -0.000017
   44  C  9  Y   -0.000122   0.002952   0.001137   0.000053  -0.000023
   45  C  9  Z    0.000114  -0.002760   0.003448   0.000039  -0.000041
   46  O 10  S    0.000001  -0.000022  -0.000022   0.000009   0.000000
   47  O 10  S   -0.000010   0.000244   0.000249  -0.000084   0.000005
   48  O 10  X   -0.000005  -0.000012   0.000112   0.000014   0.000008
   49  O 10  Y    0.000007  -0.000172  -0.000075   0.000050  -0.000001
   50  O 10  Z   -0.000008   0.000150  -0.000177   0.000001   0.000002
   51  H 11  S   -0.006892  -0.000159  -0.000010  -0.000031   0.000107
   52  H 12  S   -0.006910  -0.000131  -0.000105  -0.000057   0.000014
   53  H 13  S    0.000051   0.000009  -0.000004   0.000141  -0.007002
   54  H 14  S   -0.000616  -0.001570  -0.000210  -0.000044   0.000020
   55  H 15  S   -0.000671  -0.001568  -0.000018  -0.000040   0.000105
   56  H 16  S    0.000256  -0.006694  -0.000099   0.000120  -0.000032
   57  H 17  S   -0.000001   0.000068  -0.000031  -0.006920  -0.000118
   58  H 18  S   -0.000085  -0.000155  -0.000094   0.000106  -0.000042
   59  H 19  S    0.000012  -0.000092   0.000266  -0.000106  -0.000003
   60  H 20  S   -0.000001  -0.000067  -0.006868  -0.000089   0.000001

                     11         12         13         14         15
                   -1.3129    -1.0917    -1.0182    -0.9718    -0.9334
                     A          A          A          A          A   
    1  C  1  S   -0.000703  -0.056415  -0.102714   0.069570  -0.076347
    2  C  1  S    0.001711   0.149959   0.276419  -0.191499   0.219055
    3  C  1  X    0.000023  -0.004109  -0.064086   0.033136   0.026888
    4  C  1  Y    0.000438   0.018870   0.016371  -0.007369  -0.004338
    5  C  1  Z    0.000298   0.022063   0.048699  -0.010757  -0.002983
    6  C  2  S   -0.001044  -0.058417  -0.147811   0.066235   0.012171
    7  C  2  S    0.002309   0.145769   0.383123  -0.175447  -0.032712
    8  C  2  X    0.000410   0.025525   0.038199  -0.023032   0.048022
    9  C  2  Y    0.000973   0.021473   0.047215   0.001899  -0.069359
   10  C  2  Z    0.000168  -0.007583  -0.014569   0.026182  -0.049311
   11  C  3  S   -0.003135  -0.051116  -0.114876   0.018440   0.091587
   12  C  3  S    0.007675   0.135764   0.310199  -0.047060  -0.260624
   13  C  3  X    0.001964   0.020023   0.009166   0.016699  -0.001278
   14  C  3  Y    0.001774  -0.020542  -0.072982   0.042856  -0.006800
   15  C  3  Z   -0.000254  -0.006957  -0.025181   0.025210  -0.002425
   16  C  4  S   -0.021441  -0.087697  -0.008646  -0.125958   0.084072
   17  C  4  S    0.053625   0.230053   0.026283   0.348152  -0.241591
   18  C  4  X    0.004504   0.036095  -0.028874   0.057906   0.019698
   19  C  4  Y    0.020616  -0.034967  -0.013385  -0.046924  -0.048051
   20  C  4  Z   -0.017239  -0.026922   0.006145   0.008011   0.022352
   21  C  5  S   -0.005572  -0.108609   0.008430  -0.128274  -0.047944
   22  C  5  S    0.012751   0.273119  -0.021857   0.342529   0.130816
   23  C  5  X   -0.003023  -0.025219  -0.018145  -0.050613   0.052412
   24  C  5  Y    0.004772   0.018257  -0.002931   0.045234  -0.086381
   25  C  5  Z   -0.001699  -0.058136   0.017846  -0.001252  -0.075488
   26  C  6  S   -0.003225  -0.112716   0.031048  -0.020090  -0.131101
   27  C  6  S    0.007685   0.296972  -0.082831   0.051423   0.372726
   28  C  6  X   -0.000611  -0.013998  -0.027826  -0.012299   0.006278
   29  C  6  Y    0.002783   0.051688  -0.042964  -0.000535  -0.012429
   30  C  6  Z    0.000625   0.020413   0.017487   0.109106   0.022851
   31  C  7  S   -0.006025  -0.103313   0.093472   0.105311  -0.008327
   32  C  7  S    0.014334   0.263291  -0.245750  -0.283098   0.026782
   33  C  7  X   -0.002880  -0.029063   0.017445   0.021023   0.016159
   34  C  7  Y    0.005670   0.015621  -0.052369  -0.074961  -0.125116
   35  C  7  Z    0.002500   0.044472  -0.018042   0.015280   0.032966
   36  C  8  S   -0.021743  -0.081432   0.091468   0.105517   0.086824
   37  C  8  S    0.052869   0.204540  -0.237310  -0.279826  -0.235785
   38  C  8  X   -0.013718   0.008210  -0.017252  -0.027325   0.016990
   39  C  8  Y    0.006593  -0.061015   0.056864   0.064033  -0.003928
   40  C  8  Z    0.023122   0.014853  -0.003084   0.026653  -0.027893
   41  C  9  S   -0.127581  -0.035762   0.022138  -0.008450   0.070164
   42  C  9  S    0.295701   0.099334  -0.063437   0.023645  -0.207157
   43  C  9  X   -0.050812   0.027222  -0.035810  -0.030160  -0.031220
   44  C  9  Y    0.142743  -0.086609   0.028469  -0.043989   0.116905
   45  C  9  Z    0.025345  -0.013169   0.041447   0.089317   0.019721
   46  O 10  S   -0.214496   0.038241  -0.015261   0.006399  -0.049560
   47  O 10  S    0.749418  -0.142717   0.058499  -0.025016   0.198086
   48  O 10  X    0.053472  -0.002783  -0.005997  -0.007836  -0.004373
   49  O 10  Y   -0.154725   0.005852  -0.001392  -0.009025   0.024278
   50  O 10  Z   -0.027746   0.001930   0.007644   0.023140   0.002892
   51  H 11  S    0.000185   0.028691   0.060122  -0.048134   0.070696
   52  H 12  S    0.000422   0.037071   0.059968  -0.057595   0.064825
   53  H 13  S    0.000306   0.028998   0.087656  -0.042352  -0.008028
   54  H 14  S    0.003457   0.031882   0.071645  -0.011805  -0.082288
   55  H 15  S    0.001284   0.025222   0.068225  -0.006584  -0.078879
   56  H 16  S    0.008817   0.040042   0.010978   0.089836  -0.070791
   57  H 17  S    0.001521   0.051064  -0.000179   0.088605   0.040584
   58  H 18  S    0.000820   0.055676  -0.016071   0.008947   0.119137
   59  H 19  S    0.001621   0.049409  -0.055419  -0.078121   0.014397
   60  H 20  S    0.008802   0.035058  -0.052355  -0.075058  -0.064701

                     16         17         18         19         20
                   -0.8550    -0.7742    -0.7531    -0.7105    -0.6556
                     A          A          A          A          A   
    1  C  1  S   -0.132754   0.035950  -0.009393   0.068962   0.004019
    2  C  1  S    0.385070  -0.111700   0.033936  -0.220729  -0.011401
    3  C  1  X   -0.036801  -0.045438   0.060371  -0.077688   0.054797
    4  C  1  Y   -0.037760   0.000463   0.004756   0.012516  -0.134199
    5  C  1  Z   -0.020778   0.085192  -0.041761   0.180344   0.023085
    6  C  2  S   -0.000764  -0.055344   0.046530  -0.115120  -0.004077
    7  C  2  S    0.002094   0.165235  -0.140807   0.355058   0.015592
    8  C  2  X    0.095622  -0.011786  -0.004904  -0.012611  -0.032285
    9  C  2  Y   -0.132798  -0.014700   0.046280  -0.098291  -0.094284
   10  C  2  Z   -0.105433   0.040407  -0.024302   0.112068   0.094692
   11  C  3  S    0.132108   0.014100  -0.036893   0.067783   0.001454
   12  C  3  S   -0.383316  -0.048124   0.114134  -0.217331  -0.003258
   13  C  3  X    0.052967  -0.004017  -0.026723   0.059303  -0.052958
   14  C  3  Y    0.010610  -0.091635   0.080879  -0.179898   0.011524
   15  C  3  Z   -0.000643  -0.010798  -0.032089   0.018876   0.123686
   16  C  4  S   -0.062507   0.081786   0.041395  -0.015608  -0.028198
   17  C  4  S    0.180597  -0.253390  -0.121229   0.049835   0.097392
   18  C  4  X    0.050751   0.061966  -0.040489   0.024194  -0.097486
   19  C  4  Y    0.045891  -0.126176   0.128407   0.108989   0.104669
   20  C  4  Z   -0.005832  -0.026208  -0.143070  -0.055671   0.176977
   21  C  5  S    0.006552  -0.095495   0.057758   0.047484   0.026675
   22  C  5  S   -0.018849   0.283266  -0.175284  -0.145289  -0.080795
   23  C  5  X   -0.044584   0.033911   0.075104   0.029536   0.041753
   24  C  5  Y    0.065331  -0.097767  -0.054726   0.053209  -0.099454
   25  C  5  Z    0.049535  -0.002422  -0.144034  -0.078083   0.123001
   26  C  6  S    0.071523   0.007709  -0.084265  -0.031712  -0.032990
   27  C  6  S   -0.206962  -0.029025   0.259985   0.098690   0.110895
   28  C  6  X   -0.058128  -0.035617   0.031274   0.056800   0.147349
   29  C  6  Y   -0.026036  -0.014315  -0.057201   0.043791  -0.252979
   30  C  6  Z    0.001359   0.196568   0.006094  -0.053457  -0.035401
   31  C  7  S    0.052007   0.081123   0.082641  -0.019664   0.026254
   32  C  7  S   -0.151055  -0.246652  -0.244787   0.062687  -0.080062
   33  C  7  X   -0.024378  -0.035694  -0.040539   0.022521   0.098931
   34  C  7  Y    0.062819   0.132633  -0.097857  -0.083048  -0.047757
   35  C  7  Z   -0.012562   0.034630   0.128689   0.062517  -0.124295
   36  C  8  S   -0.036966  -0.088599  -0.001491   0.039497  -0.032415
   37  C  8  S    0.106561   0.263445   0.016055  -0.118977   0.113915
   38  C  8  X   -0.035399  -0.028489  -0.122723  -0.017861   0.017449
   39  C  8  Y    0.045547   0.113851   0.122763  -0.039120   0.197063
   40  C  8  Z    0.042374   0.012118   0.161042   0.097192  -0.105171
   41  C  9  S   -0.062140  -0.000491  -0.107370  -0.051607  -0.014041
   42  C  9  S    0.189392   0.001120   0.343332   0.167561   0.044898
   43  C  9  X    0.038431   0.091590   0.039705   0.010190  -0.001541
   44  C  9  Y   -0.083703   0.062192  -0.092575  -0.065650   0.058743
   45  C  9  Z   -0.003526  -0.186390  -0.080583   0.075243   0.003285
   46  O 10  S    0.036103  -0.001274   0.058955   0.023323   0.029166
   47  O 10  S   -0.149813   0.005769  -0.258966  -0.104715  -0.139353
   48  O 10  X    0.016531   0.044444   0.038181   0.015332   0.037641
   49  O 10  Y   -0.032873   0.033741  -0.098934  -0.065895  -0.073512
   50  O 10  Z   -0.002324  -0.092725  -0.050986   0.039807  -0.017970
   51  H 11  S    0.143544  -0.053857   0.022790  -0.121291   0.100443
   52  H 12  S    0.122415  -0.091281   0.032229  -0.183308  -0.074215
   53  H 13  S    0.000501   0.085907  -0.083293   0.236777   0.105184
   54  H 14  S   -0.119912  -0.050020   0.100620  -0.174474  -0.063096
   55  H 15  S   -0.142593  -0.032288   0.045627  -0.121664   0.094388
   56  H 16  S    0.054676  -0.139321  -0.095857   0.001022   0.195709
   57  H 17  S   -0.009156   0.143534  -0.110901  -0.115454   0.078710
   58  H 18  S   -0.075647  -0.027053   0.138633   0.039359   0.260296
   59  H 19  S   -0.060626  -0.142203  -0.155850   0.013163   0.080767
   60  H 20  S    0.034314   0.139454  -0.022071  -0.111471   0.195629

                     21         22         23         24         25
                   -0.6060    -0.5917    -0.5868    -0.5546    -0.5419
                     A          A          A          A          A   
    1  C  1  S    0.015521  -0.007148  -0.001082   0.000321   0.004293
    2  C  1  S   -0.055521   0.020204  -0.001532  -0.002845  -0.022791
    3  C  1  X   -0.103975  -0.011312  -0.074677   0.009380  -0.095250
    4  C  1  Y    0.267766  -0.132919  -0.048764  -0.184175  -0.109737
    5  C  1  Z    0.034240  -0.043139   0.148847   0.176523   0.206340
    6  C  2  S   -0.027093   0.005959  -0.004765   0.012579  -0.007379
    7  C  2  S    0.083024  -0.016314   0.014716  -0.041384   0.023921
    8  C  2  X    0.071310  -0.060277   0.080262   0.088275   0.096688
    9  C  2  Y    0.183188  -0.095145  -0.063519  -0.126154  -0.116159
   10  C  2  Z   -0.156732   0.023070  -0.104268  -0.015460  -0.132448
   11  C  3  S    0.014166  -0.009102   0.004545  -0.004192   0.001659
   12  C  3  S   -0.051132   0.029063  -0.011913   0.023729  -0.001159
   13  C  3  X    0.154481  -0.101091   0.038745   0.046848   0.038137
   14  C  3  Y   -0.084351   0.073521   0.133740   0.174591   0.196529
   15  C  3  Z   -0.246396   0.009478  -0.133040  -0.062942  -0.190160
   16  C  4  S   -0.001466   0.054914   0.012193  -0.020985  -0.006494
   17  C  4  S    0.007510  -0.185646  -0.036641   0.072029   0.021578
   18  C  4  X   -0.004130   0.065861  -0.095064   0.068514  -0.037257
   19  C  4  Y    0.016059   0.039453   0.211590  -0.156265  -0.049586
   20  C  4  Z    0.005447  -0.131235  -0.082156  -0.194339   0.157858
   21  C  5  S   -0.005235  -0.055770   0.000232  -0.009393   0.017440
   22  C  5  S    0.020169   0.190098   0.000717   0.026106  -0.056509
   23  C  5  X   -0.001883   0.078349   0.127308  -0.124835  -0.013217
   24  C  5  Y   -0.048041  -0.122541  -0.181561   0.167335   0.000268
   25  C  5  Z    0.094312   0.170766  -0.089395  -0.186837   0.206056
   26  C  6  S    0.003887   0.056285  -0.007234  -0.000610   0.005310
   27  C  6  S   -0.011921  -0.196111   0.020007   0.000039  -0.013997
   28  C  6  X    0.043025   0.016945   0.000239  -0.063813   0.117050
   29  C  6  Y   -0.084764   0.033423  -0.084571   0.036156  -0.045468
   30  C  6  Z   -0.036860   0.030085   0.220709   0.038963  -0.159600
   31  C  7  S    0.000733  -0.046258   0.006352   0.007860  -0.019778
   32  C  7  S    0.008073   0.157010  -0.040369  -0.016225   0.065768
   33  C  7  X    0.099354   0.103102  -0.033038   0.139857  -0.034731
   34  C  7  Y   -0.132384  -0.051448   0.266154  -0.150274  -0.015583
   35  C  7  Z   -0.167758  -0.151935  -0.026606  -0.180355   0.134853
   36  C  8  S    0.014227   0.049925  -0.020057   0.018408  -0.005401
   37  C  8  S   -0.034822  -0.162989   0.053682  -0.052164   0.015880
   38  C  8  X   -0.035042  -0.042921   0.123184  -0.009983  -0.073615
   39  C  8  Y    0.155550  -0.085605  -0.169369   0.218395  -0.102457
   40  C  8  Z   -0.052534   0.137006  -0.148435  -0.114340   0.194571
   41  C  9  S   -0.033246  -0.086017   0.007438   0.011696   0.020774
   42  C  9  S    0.113892   0.299706  -0.022893  -0.038567  -0.070839
   43  C  9  X   -0.029221  -0.019554  -0.161318  -0.044773   0.075548
   44  C  9  Y    0.051438   0.029239  -0.097109  -0.031116  -0.035960
   45  C  9  Z   -0.010331   0.015919   0.255277  -0.039384  -0.226049
   46  O 10  S    0.034089   0.054693  -0.002605  -0.009703  -0.028577
   47  O 10  S   -0.167499  -0.269459   0.012605   0.049461   0.147987
   48  O 10  X    0.045282   0.074148  -0.146603  -0.034543  -0.011572
   49  O 10  Y   -0.125233  -0.245704  -0.079681   0.060035   0.209013
   50  O 10  Z   -0.050118  -0.032315   0.247555  -0.072148  -0.166307
   51  H 11  S   -0.248321   0.114456   0.010892   0.134132   0.045024
   52  H 12  S    0.070902  -0.011140  -0.128257  -0.209638  -0.208446
   53  H 13  S   -0.154315   0.069458  -0.028243   0.026830  -0.012816
   54  H 14  S    0.075625   0.058763   0.148244   0.144883   0.233741
   55  H 15  S   -0.255373   0.075392  -0.086569  -0.034749  -0.112982
   56  H 16  S    0.002039  -0.186759  -0.003452  -0.174493   0.127996
   57  H 17  S    0.085256   0.263972   0.043219  -0.210061   0.111722
   58  H 18  S    0.065086  -0.101096   0.049069  -0.052845   0.098135
   59  H 19  S    0.176784   0.230061  -0.072091   0.212563  -0.076616
   60  H 20  S    0.086889  -0.209186   0.025322   0.169472  -0.176578

                     26         27         28         29         30
                   -0.5156    -0.5060    -0.4866    -0.4785    -0.4506
                     A          A          A          A          A   
    1  C  1  S    0.010045  -0.008406  -0.003792  -0.030589   0.007147
    2  C  1  S   -0.036964   0.017070   0.017690   0.106797  -0.025462
    3  C  1  X    0.042016  -0.219364   0.118007  -0.130893   0.069523
    4  C  1  Y   -0.091494  -0.016794  -0.253966   0.112023  -0.151684
    5  C  1  Z   -0.177039  -0.033236   0.092779   0.228986  -0.102270
    6  C  2  S   -0.009533  -0.017076   0.007643   0.007273  -0.002189
    7  C  2  S    0.033639   0.060523  -0.033001  -0.032384   0.007458
    8  C  2  X   -0.162596  -0.086604   0.020715   0.226768  -0.101139
    9  C  2  Y    0.124440  -0.073594   0.308362   0.058823   0.136590
   10  C  2  Z    0.061242  -0.207281  -0.010396  -0.212462   0.079395
   11  C  3  S   -0.009847  -0.002881  -0.031997  -0.005300  -0.006841
   12  C  3  S    0.026636   0.000508   0.110501   0.023881   0.022091
   13  C  3  X    0.000432  -0.222447   0.112276  -0.059047   0.091975
   14  C  3  Y   -0.152338   0.075570  -0.242930  -0.024406  -0.137590
   15  C  3  Z   -0.126897  -0.092519  -0.078209   0.305861  -0.112548
   16  C  4  S   -0.011524   0.008583  -0.001370  -0.000465   0.003692
   17  C  4  S    0.035775  -0.042955   0.004769   0.008656  -0.004477
   18  C  4  X    0.192394   0.192126   0.040307  -0.035058  -0.188354
   19  C  4  Y    0.021232   0.096641  -0.117886   0.038008   0.228076
   20  C  4  Z   -0.184844   0.142086   0.058488  -0.052625   0.144430
   21  C  5  S   -0.004811  -0.021109   0.005593   0.007890  -0.000224
   22  C  5  S    0.018988   0.074314  -0.022302  -0.028146   0.000959
   23  C  5  X    0.027370   0.186731  -0.078202   0.005739   0.193896
   24  C  5  Y    0.112332   0.161204   0.085307  -0.069776  -0.217851
   25  C  5  Z    0.112020  -0.068320  -0.024833  -0.059869  -0.209821
   26  C  6  S    0.022072  -0.006628   0.002818   0.011556  -0.004979
   27  C  6  S   -0.082698   0.013565  -0.006768  -0.043244   0.007872
   28  C  6  X    0.190679   0.166234   0.004944  -0.019160  -0.092189
   29  C  6  Y   -0.201877   0.196884  -0.074597  -0.122322   0.193316
   30  C  6  Z   -0.026210   0.063391   0.011346   0.126682   0.250721
   31  C  7  S    0.019223   0.000866  -0.011862   0.002252  -0.003225
   32  C  7  S   -0.072344   0.001746   0.030022  -0.011430   0.021444
   33  C  7  X    0.088523   0.157905   0.024382   0.121238   0.106794
   34  C  7  Y    0.054515  -0.040037   0.158785   0.064854  -0.080412
   35  C  7  Z   -0.075686   0.134458   0.043758  -0.151382  -0.092381
   36  C  8  S   -0.010107   0.003961   0.000976   0.003725   0.011150
   37  C  8  S    0.036164  -0.009194  -0.014310  -0.015829  -0.036036
   38  C  8  X    0.033820   0.171477   0.126738   0.013032  -0.063166
   39  C  8  Y   -0.004004   0.140303  -0.126405  -0.029933   0.092263
   40  C  8  Z    0.063272   0.013736   0.026129   0.153155   0.106977
   41  C  9  S    0.006467   0.008417  -0.007584  -0.014746   0.000398
   42  C  9  S   -0.014459  -0.034063   0.021440   0.057970   0.001195
   43  C  9  X    0.144138   0.223247   0.073219   0.184222   0.066902
   44  C  9  Y   -0.276633   0.128107   0.235462  -0.111927  -0.107711
   45  C  9  Z    0.074900   0.150095   0.065540  -0.032281  -0.131867
   46  O 10  S   -0.055811   0.010036   0.034649  -0.021413  -0.018428
   47  O 10  S    0.297659  -0.054013  -0.190451   0.119208   0.105963
   48  O 10  X   -0.093229   0.219453   0.230235   0.075902  -0.021283
   49  O 10  Y    0.341875  -0.011258  -0.231817   0.219282   0.242512
   50  O 10  Z    0.179555   0.101148  -0.036062  -0.005902  -0.135021
   51  H 11  S    0.102754  -0.021133   0.270431  -0.110455   0.166613
   52  H 12  S    0.067725   0.011677  -0.217659  -0.091845  -0.010313
   53  H 13  S    0.007966  -0.039220  -0.239680  -0.251695  -0.015907
   54  H 14  S    0.006082   0.094269  -0.075989  -0.244303   0.002502
   55  H 15  S   -0.108983   0.081620  -0.114191   0.276976  -0.157187
   56  H 16  S   -0.181590   0.079758   0.000259  -0.014129   0.256774
   57  H 17  S    0.030976  -0.085746  -0.092943  -0.021936  -0.011703
   58  H 18  S    0.223862  -0.056597   0.065134   0.048864  -0.233310
   59  H 19  S    0.052376  -0.023411  -0.049603   0.163903   0.174598
   60  H 20  S   -0.016220   0.105866  -0.092496  -0.129402  -0.037297

                     31         32         33         34         35
                   -0.4448    -0.4166    -0.3568    -0.3143    -0.2712
                     A          A          A          A          A   
    1  C  1  S   -0.009220   0.002097  -0.005643   0.000054  -0.027305
    2  C  1  S    0.037948   0.006777   0.006850  -0.000768   0.131693
    3  C  1  X    0.047424   0.233112  -0.083210  -0.003969   0.321956
    4  C  1  Y   -0.102755   0.119632   0.015665   0.010367   0.160425
    5  C  1  Z    0.163081   0.044419  -0.141408  -0.030507   0.164073
    6  C  2  S    0.002707   0.020827   0.012977   0.003308   0.006645
    7  C  2  S   -0.015286  -0.073850  -0.049578  -0.010583  -0.028331
    8  C  2  X    0.095521   0.090138   0.121690  -0.010125   0.058829
    9  C  2  Y    0.137835  -0.094210  -0.042746  -0.015667   0.054467
   10  C  2  Z   -0.046655   0.207867   0.096630   0.007769   0.114625
   11  C  3  S   -0.014579  -0.005349  -0.011600   0.002310   0.012008
   12  C  3  S    0.052103   0.021640   0.066229  -0.010744  -0.071739
   13  C  3  X    0.024969   0.089167   0.315864  -0.003796  -0.234240
   14  C  3  Y   -0.107005   0.157595   0.089404   0.016848  -0.040614
   15  C  3  Z    0.063072  -0.084025   0.133225  -0.022223  -0.105607
   16  C  4  S    0.023862   0.008944  -0.015851   0.031823   0.012600
   17  C  4  S   -0.087557  -0.029112   0.085439  -0.144806  -0.069290
   18  C  4  X   -0.029823  -0.049286  -0.264428  -0.052010   0.260448
   19  C  4  Y    0.102500   0.016884  -0.104460  -0.246452   0.171046
   20  C  4  Z   -0.071767  -0.003055  -0.170664   0.217295   0.088657
   21  C  5  S    0.004609   0.017118   0.011809  -0.007295   0.001802
   22  C  5  S   -0.007958  -0.063378  -0.041843   0.023274  -0.003355
   23  C  5  X    0.029662  -0.114730  -0.018233  -0.126919   0.011443
   24  C  5  Y   -0.111900  -0.135516  -0.079962   0.017845   0.067613
   25  C  5  Z    0.209462   0.007703   0.033210  -0.080739   0.059528
   26  C  6  S   -0.002381  -0.006457   0.018114   0.001435  -0.005918
   27  C  6  S    0.020091   0.037301  -0.078668  -0.009200   0.050636
   28  C  6  X   -0.064522  -0.241138   0.220209  -0.017689  -0.242771
   29  C  6  Y    0.211871  -0.082788   0.102598  -0.035072  -0.098711
   30  C  6  Z   -0.267075  -0.047259  -0.003225   0.089897  -0.065986
   31  C  7  S   -0.009990   0.003078  -0.009190   0.012260   0.006448
   32  C  7  S    0.052066  -0.008967   0.036266  -0.044396  -0.025674
   33  C  7  X   -0.035027  -0.014140   0.361664   0.170409   0.279649
   34  C  7  Y   -0.272823   0.002730   0.078364  -0.002002   0.118347
   35  C  7  Z    0.200053  -0.040759   0.262776  -0.015944   0.097115
   36  C  8  S   -0.005662  -0.000667   0.006438  -0.037099   0.005662
   37  C  8  S    0.038506   0.002645  -0.027209   0.165555  -0.027859
   38  C  8  X   -0.020935   0.086898   0.370914  -0.039392   0.352767
   39  C  8  Y    0.205956   0.022887   0.091348   0.089050   0.068070
   40  C  8  Z   -0.042575   0.070031   0.128047   0.315324   0.136955
   41  C  9  S   -0.002637  -0.002309   0.006955  -0.001061  -0.008999
   42  C  9  S    0.011145   0.012091  -0.025223   0.002726   0.037564
   43  C  9  X    0.003125   0.391027  -0.050112   0.033882  -0.124599
   44  C  9  Y   -0.125112   0.070510   0.015669   0.044781  -0.073995
   45  C  9  Z    0.130079   0.184881   0.005678  -0.186933  -0.027160
   46  O 10  S   -0.011091  -0.002737   0.000767   0.000306   0.000258
   47  O 10  S    0.064491   0.016478  -0.006714  -0.001535   0.001256
   48  O 10  X   -0.128663   0.412398   0.000985  -0.365102  -0.299364
   49  O 10  Y    0.040058   0.144034  -0.003408  -0.244052  -0.030481
   50  O 10  Z    0.314261   0.234212  -0.127562   0.648348  -0.274800
   51  H 11  S    0.110551  -0.078770  -0.008650  -0.010942  -0.072680
   52  H 12  S   -0.182748   0.044880   0.124392   0.027623  -0.031416
   53  H 13  S   -0.164956   0.173220   0.060601   0.018762   0.025322
   54  H 14  S   -0.103147   0.160392  -0.040404   0.041103   0.069981
   55  H 15  S    0.041854  -0.086415  -0.069293  -0.016591   0.049197
   56  H 16  S   -0.070359   0.000720  -0.103211   0.110570   0.042283
   57  H 17  S    0.248226   0.050229   0.069494  -0.113914   0.009398
   58  H 18  S   -0.189986  -0.067964   0.011896   0.009168  -0.080046
   59  H 19  S   -0.095157   0.022727  -0.058412   0.116503   0.009538
   60  H 20  S    0.204024  -0.017883   0.035684  -0.120122   0.000819

                     36         37         38         39         40
                   -0.2234     0.2067     0.2159     0.3540     0.3894
                     A          A          A          A          A   
    1  C  1  S   -0.025323  -0.000483  -0.041475  -0.031153  -0.030396
    2  C  1  S    0.090286   0.028903   0.208754   0.134174   0.159972
    3  C  1  X    0.159573   0.141113   0.351238   0.335278   0.326558
    4  C  1  Y    0.080590   0.032518   0.156045   0.124546   0.126115
    5  C  1  Z    0.094067   0.022241   0.154588   0.249726   0.082370
    6  C  2  S    0.021705  -0.018753  -0.007561   0.001267  -0.007705
    7  C  2  S   -0.105093   0.105433   0.043030  -0.009099   0.057394
    8  C  2  X    0.442853  -0.427517  -0.204836   0.046197  -0.270666
    9  C  2  Y    0.065119  -0.108343  -0.007753   0.016242  -0.058028
   10  C  2  Z    0.307548  -0.287948  -0.090886   0.033259  -0.181808
   11  C  3  S   -0.030056  -0.025782   0.029775   0.040260  -0.021922
   12  C  3  S    0.113614   0.149866  -0.130316  -0.184577   0.121969
   13  C  3  X    0.245744   0.301331  -0.187693  -0.461493   0.188253
   14  C  3  Y    0.059728   0.140177  -0.033213  -0.094604   0.147043
   15  C  3  Z    0.097066   0.136057  -0.059376  -0.232857   0.068042
   16  C  4  S    0.031979  -0.009158  -0.022277  -0.051451  -0.008575
   17  C  4  S   -0.123869   0.071938   0.097589   0.249544   0.063717
   18  C  4  X    0.179225  -0.207084  -0.230369  -0.454897   0.040276
   19  C  4  Y    0.072239  -0.042791  -0.095597  -0.247172  -0.018516
   20  C  4  Z    0.110461  -0.073151  -0.096853  -0.182773   0.037226
   21  C  5  S   -0.022665  -0.019162  -0.006816  -0.002376   0.020652
   22  C  5  S    0.107800   0.108385   0.037420   0.013723  -0.115163
   23  C  5  X    0.465585   0.516376   0.157892   0.046985  -0.095424
   24  C  5  Y    0.291779   0.277144   0.138574  -0.035358  -0.104523
   25  C  5  Z    0.056803   0.096481   0.071426  -0.047979  -0.003696
   26  C  6  S    0.030041  -0.019808   0.009501   0.053905   0.006554
   27  C  6  S   -0.119056   0.111369  -0.017327  -0.270065  -0.014068
   28  C  6  X    0.247492  -0.273481   0.071718   0.470090   0.180571
   29  C  6  Y    0.090178  -0.135037   0.025016   0.207203   0.063727
   30  C  6  Z    0.081072  -0.138916  -0.004941   0.111332   0.075848
   31  C  7  S    0.008317   0.015188   0.009047  -0.001347  -0.001002
   32  C  7  S   -0.034224  -0.073512  -0.042244   0.008449   0.007882
   33  C  7  X   -0.066202  -0.206144   0.408837  -0.370011   0.340885
   34  C  7  Y    0.006512   0.007845   0.150112  -0.107141   0.091231
   35  C  7  Z   -0.072666  -0.168029   0.160156  -0.173795   0.155692
   36  C  8  S   -0.004765  -0.007499  -0.002918   0.001410  -0.002307
   37  C  8  S    0.021406   0.033515   0.013087  -0.008374   0.012999
   38  C  8  X   -0.169070   0.258927  -0.259347   0.210801  -0.501563
   39  C  8  Y   -0.035344   0.072492  -0.069199   0.059185  -0.128527
   40  C  8  Z   -0.045908   0.156052  -0.132527   0.117921  -0.264535
   41  C  9  S    0.009038   0.018642   0.003393   0.001757  -0.000263
   42  C  9  S   -0.038315  -0.089434  -0.018324  -0.011670   0.003355
   43  C  9  X    0.015317   0.085199  -0.376661   0.193554   0.527322
   44  C  9  Y    0.045117   0.092071  -0.085853   0.043050   0.140188
   45  C  9  Z   -0.049903  -0.054513  -0.221155   0.099790   0.268032
   46  O 10  S   -0.000119  -0.002086  -0.000905  -0.001451   0.000128
   47  O 10  S   -0.001299   0.009071   0.004984   0.009503  -0.001439
   48  O 10  X   -0.032901  -0.095517   0.452875  -0.145959  -0.381246
   49  O 10  Y   -0.040768  -0.059716   0.105283  -0.054164  -0.095447
   50  O 10  Z    0.079021   0.009027   0.244365  -0.076863  -0.190555
   51  H 11  S    0.002684  -0.044974  -0.056600   0.011847  -0.037142
   52  H 12  S    0.072348  -0.130769  -0.060937   0.066885  -0.071183
   53  H 13  S    0.047135  -0.016164  -0.004484   0.002241   0.010148
   54  H 14  S    0.060974  -0.129100  -0.043899  -0.032564  -0.079861
   55  H 15  S   -0.003094  -0.076834   0.005850  -0.001359  -0.040099
   56  H 16  S    0.005907  -0.067678   0.002805  -0.019002  -0.091455
   57  H 17  S   -0.061085  -0.020079  -0.006464   0.002973   0.030497
   58  H 18  S    0.005104  -0.054489  -0.068501   0.057261  -0.086162
   59  H 19  S    0.023131   0.030702   0.008671  -0.006577  -0.017223
   60  H 20  S   -0.024819  -0.041543  -0.022091   0.013723  -0.016491

                     41         42         43         44         45
                    0.5165     0.5729     0.5898     0.6220     0.6227
                     A          A          A          A          A   
    1  C  1  S   -0.010622   0.024673  -0.003106  -0.007571   0.036476
    2  C  1  S    0.037530  -0.159174   0.018458   0.051084  -0.230199
    3  C  1  X    0.414632   0.007363   0.017904  -0.044603  -0.052326
    4  C  1  Y    0.152347   0.245909  -0.167465   0.045417   0.359115
    5  C  1  Z    0.149688  -0.069531   0.147305  -0.031103  -0.161656
    6  C  2  S   -0.031065   0.020535  -0.013926  -0.000735   0.042408
    7  C  2  S    0.194218  -0.127484   0.087385   0.001630  -0.268109
    8  C  2  X   -0.292219   0.063848  -0.058175  -0.044078   0.155928
    9  C  2  Y   -0.027736   0.177912  -0.144317   0.005179   0.354188
   10  C  2  Z   -0.222169  -0.171096   0.125075   0.026266  -0.306880
   11  C  3  S   -0.011451   0.013113  -0.025920   0.027881   0.030960
   12  C  3  S    0.041818  -0.084609   0.166103  -0.175272  -0.194671
   13  C  3  X    0.397168   0.098212  -0.117637   0.050784   0.123760
   14  C  3  Y    0.185649   0.110993  -0.027181  -0.092088   0.126752
   15  C  3  Z    0.190105  -0.234926   0.126859   0.113049  -0.361672
   16  C  4  S    0.043395  -0.000290  -0.047388   0.111510  -0.010275
   17  C  4  S   -0.229974  -0.020674   0.290878  -0.655788   0.075720
   18  C  4  X    0.460325   0.076845  -0.046871  -0.173167  -0.101249
   19  C  4  Y    0.099488   0.178469   0.111807  -0.489868  -0.090113
   20  C  4  Z    0.205957  -0.365882   0.140640   0.232337   0.233362
   21  C  5  S    0.010265   0.043936  -0.019015   0.002431  -0.050082
   22  C  5  S   -0.078896  -0.274523   0.121393  -0.019988   0.314950
   23  C  5  X   -0.343359  -0.056414   0.055657   0.053585   0.092459
   24  C  5  Y   -0.198463   0.212525  -0.071649   0.126386  -0.181010
   25  C  5  Z   -0.039464  -0.258250   0.175872   0.147116   0.266065
   26  C  6  S    0.040377   0.055066   0.065049  -0.015310   0.006474
   27  C  6  S   -0.213909  -0.347899  -0.377555   0.089044  -0.023806
   28  C  6  X    0.397685  -0.216718  -0.139523  -0.131468   0.017485
   29  C  6  Y    0.191616   0.271116  -0.290960   0.176623  -0.309261
   30  C  6  Z    0.258898  -0.011413   0.345211   0.023692   0.140198
   31  C  7  S   -0.015735   0.050686  -0.021216   0.051258  -0.048319
   32  C  7  S    0.089669  -0.309292   0.113681  -0.342909   0.288337
   33  C  7  X   -0.287299  -0.108480  -0.159450  -0.096770   0.012094
   34  C  7  Y   -0.122659   0.130466  -0.207381   0.159634  -0.190877
   35  C  7  Z   -0.068844   0.246196   0.539398   0.177149   0.077089
   36  C  8  S    0.014587  -0.010841  -0.023355   0.111052   0.000278
   37  C  8  S   -0.084988   0.041438   0.120312  -0.683312   0.002841
   38  C  8  X    0.253418  -0.149116  -0.276360   0.066488  -0.044083
   39  C  8  Y    0.052538  -0.019915  -0.051688  -0.402842  -0.026070
   40  C  8  Z    0.146732   0.229026   0.513263  -0.010105   0.088961
   41  C  9  S   -0.017889   0.090811   0.089010  -0.128726  -0.018653
   42  C  9  S    0.102250  -0.535359  -0.525880   0.757091   0.107723
   43  C  9  X   -0.308123  -0.000574  -0.186428   0.109079  -0.074897
   44  C  9  Y   -0.131293   0.132775   0.066984  -0.421959  -0.074646
   45  C  9  Z   -0.086943  -0.033024   0.327210   0.169366   0.163161
   46  O 10  S    0.002664  -0.018912  -0.013330   0.007185   0.003877
   47  O 10  S   -0.015610   0.118475   0.079603  -0.029300  -0.025292
   48  O 10  X    0.162463   0.038506   0.079309  -0.017190   0.010959
   49  O 10  Y    0.070988  -0.170345  -0.078639   0.059806   0.052019
   50  O 10  Z    0.062334  -0.015191  -0.110669  -0.071697  -0.044007
   51  H 11  S    0.069039   0.309043  -0.174678   0.021131   0.463802
   52  H 12  S   -0.002010  -0.125796   0.220007  -0.078008  -0.241171
   53  H 13  S   -0.041930   0.347836  -0.258734  -0.030163   0.652119
   54  H 14  S   -0.011215  -0.215470   0.043132   0.224834  -0.278513
   55  H 15  S    0.066325   0.273403  -0.251950   0.035108   0.439621
   56  H 16  S    0.032547   0.311233  -0.348975   0.244176  -0.261897
   57  H 17  S   -0.021322   0.518028  -0.274475  -0.057355  -0.517370
   58  H 18  S    0.053315   0.538462   0.087338   0.171729  -0.235250
   59  H 19  S   -0.003826   0.483207   0.424489   0.398853  -0.138545
   60  H 20  S    0.085817   0.166026   0.390529   0.656405   0.100443

                     46         47         48         49         50
                    0.6647     0.6976     0.7143     0.7259     0.7411
                     A          A          A          A          A   
    1  C  1  S    0.034354  -0.116276  -0.026722   0.126806  -0.066337
    2  C  1  S   -0.215487   0.739421   0.161643  -0.811407   0.418626
    3  C  1  X    0.106775   0.030702  -0.183951   0.160158   0.134879
    4  C  1  Y   -0.216524  -0.296818   0.252999  -0.371848  -0.146616
    5  C  1  Z    0.135315  -0.303832   0.083551   0.354035  -0.281652
    6  C  2  S   -0.010975   0.070755   0.062452  -0.014138  -0.006904
    7  C  2  S    0.064438  -0.431583  -0.387738   0.087664   0.069477
    8  C  2  X    0.029877   0.097262  -0.036353   0.182131   0.063238
    9  C  2  Y   -0.130386  -0.033231   0.074507  -0.245958  -0.035372
   10  C  2  Z   -0.059551  -0.065868   0.035810  -0.195406   0.016064
   11  C  3  S    0.001853  -0.088475  -0.122526  -0.090345  -0.067051
   12  C  3  S   -0.012437   0.554030   0.785675   0.581780   0.422121
   13  C  3  X    0.118848  -0.035633  -0.378997   0.041039  -0.077340
   14  C  3  Y   -0.062713   0.024638   0.241487   0.162098   0.242741
   15  C  3  Z   -0.188610  -0.277878   0.158877  -0.496899  -0.121200
   16  C  4  S    0.013355  -0.024179  -0.045386   0.025171   0.130878
   17  C  4  S   -0.091338   0.154032   0.300484  -0.141371  -0.817993
   18  C  4  X    0.226130   0.223402   0.044811  -0.064886  -0.174079
   19  C  4  Y   -0.198276  -0.127270   0.079273   0.008736   0.093146
   20  C  4  Z   -0.460805  -0.063442   0.189019   0.201019  -0.093063
   21  C  5  S    0.000199   0.056005   0.046812   0.001677  -0.146730
   22  C  5  S   -0.008569  -0.353498  -0.306178  -0.007299   0.935354
   23  C  5  X    0.217258   0.015560   0.013534  -0.072771  -0.144996
   24  C  5  Y   -0.136882  -0.115629   0.041671   0.085682   0.021855
   25  C  5  Z   -0.209025  -0.001676   0.023122   0.131911  -0.058972
   26  C  6  S    0.080191  -0.079906   0.031179  -0.051559   0.115947
   27  C  6  S   -0.479436   0.509506  -0.192445   0.304987  -0.728466
   28  C  6  X   -0.039809   0.325972  -0.206342  -0.062725  -0.130246
   29  C  6  Y   -0.475084  -0.155006   0.134611   0.172830   0.140048
   30  C  6  Z    0.098499  -0.025293   0.275184  -0.064997  -0.207804
   31  C  7  S   -0.120863   0.061807  -0.086017   0.052963  -0.026012
   32  C  7  S    0.744803  -0.408898   0.548143  -0.325520   0.160579
   33  C  7  X    0.113363  -0.135076  -0.015630   0.024001   0.085267
   34  C  7  Y   -0.263539   0.034382   0.077469   0.169547  -0.166635
   35  C  7  Z    0.072956   0.005652  -0.023293   0.007266  -0.044220
   36  C  8  S    0.091360  -0.003947   0.106857  -0.003548  -0.043158
   37  C  8  S   -0.551514   0.011520  -0.682931   0.018732   0.287597
   38  C  8  X    0.000075   0.053831   0.043462   0.036047  -0.051770
   39  C  8  Y   -0.161057  -0.211580   0.026833  -0.002838   0.095879
   40  C  8  Z    0.002039   0.123379  -0.091672  -0.105524  -0.009043
   41  C  9  S    0.005066   0.028045  -0.048566  -0.040351  -0.024031
   42  C  9  S   -0.042773  -0.182566   0.292994   0.242765   0.143520
   43  C  9  X    0.190416  -0.023411   0.097387  -0.049430  -0.122215
   44  C  9  Y   -0.076424  -0.131475   0.055134  -0.073407  -0.065739
   45  C  9  Z   -0.289694  -0.080625  -0.374986   0.023975   0.305150
   46  O 10  S   -0.017008  -0.020917   0.011309   0.007636   0.010144
   47  O 10  S    0.120866   0.143784  -0.074620  -0.050660  -0.069332
   48  O 10  X    0.003671   0.079075  -0.055158  -0.006423   0.001795
   49  O 10  Y   -0.176974  -0.160428   0.062394   0.073216   0.105474
   50  O 10  Z    0.053738  -0.007672   0.132431   0.000919  -0.081800
   51  H 11  S   -0.112419  -0.651529   0.182968   0.042934  -0.387843
   52  H 12  S    0.322773  -0.425978  -0.128466   0.860330  -0.323219
   53  H 13  S   -0.083443   0.285434   0.225534  -0.044317  -0.021931
   54  H 14  S   -0.088585  -0.458060  -0.429333  -0.737134  -0.416526
   55  H 15  S    0.220479  -0.092163  -0.733639   0.089259  -0.202562
   56  H 16  S    0.581478   0.083366  -0.285430  -0.112833   0.403333
   57  H 17  S    0.041611   0.117229   0.148297  -0.032094  -0.392668
   58  H 18  S   -0.089028  -0.534332   0.327876  -0.001958   0.513415
   59  H 19  S   -0.468377   0.288783  -0.261447   0.173289  -0.188466
   60  H 20  S    0.420312   0.199463   0.256557  -0.082244  -0.185448

                     51         52         53         54         55
                    0.7566     0.7867     0.8227     0.8763     0.8828
                     A          A          A          A          A   
    1  C  1  S    0.067799   0.037215  -0.025611   0.010266   0.023092
    2  C  1  S   -0.438028  -0.232825   0.159114  -0.071617  -0.168218
    3  C  1  X   -0.155191   0.214572  -0.136445   0.029006   0.156379
    4  C  1  Y    0.450734   0.069975  -0.044593  -0.128660   0.052688
    5  C  1  Z    0.150863  -0.509963   0.390960   0.089988  -0.150150
    6  C  2  S   -0.024288  -0.164962   0.110705   0.012977   0.001665
    7  C  2  S    0.159961   1.092062  -0.740626  -0.088132  -0.011559
    8  C  2  X   -0.031420   0.197798  -0.157568   0.024266   0.177941
    9  C  2  Y    0.060787  -0.003332  -0.003037   0.139529  -0.283038
   10  C  2  Z    0.086120   0.212463  -0.137958  -0.151415  -0.199047
   11  C  3  S   -0.056037   0.053339  -0.020922   0.006616  -0.023399
   12  C  3  S    0.360559  -0.335086   0.131405  -0.052326   0.168585
   13  C  3  X   -0.318163  -0.095637   0.088097   0.011594  -0.005770
   14  C  3  Y    0.322270   0.488470  -0.397906  -0.038050  -0.243621
   15  C  3  Z    0.333061  -0.139160   0.135366   0.104978   0.008138
   16  C  4  S    0.054520  -0.053889  -0.012698   0.032992  -0.082874
   17  C  4  S   -0.344787   0.339412   0.082921  -0.234490   0.575229
   18  C  4  X    0.134971  -0.048083   0.008967  -0.324113   0.185530
   19  C  4  Y   -0.149971   0.329994   0.439261   0.413671  -0.273365
[...]
 18   H            X -0.03205781 -0.01746186 -0.03147740 -0.02239149 -0.00624644
                   Y -0.10433540 -0.01260511  0.01740315 -0.07148640 -0.01656769
                   Z  0.03984532  0.00337653 -0.00825823  0.06227393  0.00946012
 19   H            X  0.00468560  0.00022469 -0.00144364 -0.04990479 -0.01176555
                   Y -0.06300489 -0.00342593  0.02291353 -0.10300169 -0.01860817
                   Z  0.03318424  0.00165428 -0.00310326  0.14057224  0.02997078
 20   H            X  0.00041955  0.00042520  0.00107822 -0.04789895 -0.04745463
                   Y  0.01088024  0.00078633 -0.00155560 -0.02531521  0.03918152
                   Z -0.01349655  0.00102743  0.01660322  0.12839826  0.07562323

 TRANS. SAYVETZ    X -0.00000245  0.00000016 -0.00000237 -0.00000078 -0.00000235
                   Y -0.00000022 -0.00000107  0.00000038  0.00000045  0.00000046
                   Z  0.00000036 -0.00000081  0.00000058  0.00000082  0.00000074
               TOTAL  0.00000249  0.00000135  0.00000247  0.00000121  0.00000250

   ROT. SAYVETZ    X -0.00000238  0.00021224  0.00000322 -0.00003929  0.00001738
                   Y  0.00007619 -0.00007740 -0.00009704  0.00001129  0.00000537
                   Z -0.00008728  0.00001351  0.00007310 -0.00001029  0.00000818
               TOTAL  0.00011588  0.00022631  0.00012153  0.00004215  0.00001994

                           51          52          53          54          55
       FREQUENCY:      3630.08     3634.32     3686.08     3693.05     3695.66  
        SYMMETRY:         A           A           A           A           A   
    REDUCED MASS:      1.06267     1.06462     1.09101     1.09411     1.09590
    IR INTENSITY:      0.09887     0.07245     0.19345     0.04548     0.14159

  1   C            X  0.01395506 -0.00702654 -0.00200195 -0.00017011 -0.00371723
                   Y -0.02463124  0.01331790  0.00095329  0.00059405 -0.00067729
                   Z -0.05281454  0.02936105  0.00605152 -0.00191295  0.01034969
  2   C            X -0.00105929  0.00333666  0.00393080 -0.00210520  0.01774180
                   Y  0.00691351 -0.00300250  0.01221858 -0.00729241  0.05597691
                   Z -0.00598361 -0.00573185 -0.01208910  0.00677355 -0.05520073
  3   C            X -0.01873834 -0.03696088  0.00260288 -0.00070025  0.00260357
                   Y  0.02514546  0.04835964 -0.00578653  0.00235210 -0.01008621
                   Z  0.00026618 -0.00074257  0.00165992  0.00061498  0.00347592
  4   C            X  0.00061075  0.00125136  0.01568142  0.01544196 -0.00352082
                   Y -0.00068419 -0.00073777 -0.01707367 -0.01795201  0.00353753
                   Z -0.00309352 -0.00080218 -0.05263942 -0.04824708  0.00898096
  5   C            X  0.00034398 -0.00012255  0.00298232 -0.00327869 -0.00033599
                   Y -0.00239050 -0.00044989 -0.02460907  0.00805725  0.00109215
                   Z  0.00282888  0.00118941  0.03208571 -0.00309415 -0.00082494
  6   C            X -0.00183146 -0.00093544 -0.02349933  0.03744296  0.01176394
                   Y  0.00268318  0.00032315  0.03097323 -0.04790174 -0.01565862
                   Z  0.00033895 -0.00085574  0.00214975 -0.00617903 -0.00281272
  7   C            X  0.00065939 -0.00003863  0.00376055 -0.00824540 -0.00386257
                   Y  0.00003302 -0.00011795 -0.00329156  0.00652524  0.00283229
                   Z -0.00024005 -0.00003604 -0.00589550  0.01308801  0.00629717
  8   C            X -0.00001666  0.00000265 -0.00092593  0.00193253  0.00085120
                   Y -0.00036063 -0.00019473 -0.00206083  0.00518800  0.00217997
                   Z  0.00037253  0.00003603  0.00250413 -0.00601767 -0.00264069
  9   C            X  0.00024890  0.00021046 -0.00037691 -0.00055288  0.00004147
                   Y -0.00000925  0.00016943 -0.00075703 -0.00101119  0.00014765
                   Z  0.00025629  0.00014295  0.00095459  0.00147839 -0.00006063
 10   O            X -0.00000487  0.00002726  0.00000740  0.00001799 -0.00000770
                   Y -0.00001054 -0.00003259  0.00004470  0.00019025 -0.00004208
                   Z -0.00001300  0.00001056 -0.00006367 -0.00014424 -0.00000120
 11   H            X -0.12877495  0.06960655  0.01077053 -0.00176120  0.00865520
                   Y  0.58145297 -0.31268798 -0.03920657  0.00515964 -0.02975434
                   Z  0.07654291 -0.04079146 -0.00501731  0.00088394 -0.00419166
 12   H            X -0.00002241 -0.00063207  0.00182460  0.00014178 -0.00173069
                   Y -0.31138931  0.16917543  0.03285430 -0.01172568  0.04926111
                   Z  0.50482107 -0.27625943 -0.05077020  0.01849730 -0.07683112
 13   H            X -0.02820851 -0.00686517 -0.03762126  0.02214670 -0.17666033
                   Y -0.09753954 -0.03137948 -0.13416576  0.07809082 -0.62148312
                   Z  0.10022262  0.02833579  0.13666151 -0.07930872  0.63105504
 14   H            X  0.01787972  0.03657997 -0.00157921  0.00055314 -0.00494988
                   Y -0.21107586 -0.40587472  0.04392897 -0.00961557  0.05958827
                   Z  0.23928805  0.45954109 -0.04832428  0.01090377 -0.07108663
 15   H            X  0.19860891  0.37534045 -0.02238021  0.00749136 -0.01550138
                   Y -0.05799023 -0.10962073  0.00795770 -0.00275192  0.00645052
                   Z -0.23170476 -0.43900307  0.02864848 -0.00994414  0.02018569
 16   H            X -0.00838862 -0.00246374 -0.17142141 -0.15928169  0.03052576
                   Y  0.01261802  0.00392952  0.20520935  0.18989514 -0.03529392
                   Z  0.03621502  0.01098482  0.59691396  0.54898205 -0.10220995
 17   H            X -0.00360056 -0.00108680 -0.04534577  0.00892057  0.00218026
                   Y  0.02720436  0.00848689  0.29227648 -0.05476188 -0.01364921
                   Z -0.03407400 -0.01078596 -0.37090327  0.06728536  0.01719863
 18   H            X  0.02498004  0.00895521  0.27642566 -0.42749028 -0.13506953
                   Y -0.02884922 -0.01010377 -0.34787228  0.53895367  0.17172198
                   Z -0.00230532 -0.00059127 -0.03484487  0.05586162  0.01852539
 19   H            X -0.00362527 -0.00049337 -0.04225310  0.09245704  0.04304857
                   Y  0.00176226  0.00050383  0.02479972 -0.05385762 -0.02514437
                   Z  0.00689645  0.00079148  0.07327846 -0.15905193 -0.07420115
 20   H            X  0.00061792  0.00026823  0.00581628 -0.01693724 -0.00715146
                   Y  0.00420474  0.00145339  0.02583220 -0.06990995 -0.02949681
                   Z -0.00428075 -0.00102046 -0.02436081  0.06607857  0.02778347

 TRANS. SAYVETZ    X  0.00000011  0.00000023 -0.00000100 -0.00000007 -0.00000026
                   Y -0.00000098 -0.00000041 -0.00000060  0.00000032 -0.00000107
                   Z -0.00000124 -0.00000016  0.00000002 -0.00000011 -0.00000079
               TOTAL  0.00000158  0.00000050  0.00000116  0.00000035  0.00000136

   ROT. SAYVETZ    X -0.00001964 -0.00000385 -0.00000325  0.00000433  0.00000564
                   Y  0.00001057  0.00003156  0.00001780  0.00002261 -0.00000534
                   Z  0.00002514 -0.00000381  0.00000427 -0.00003161 -0.00000722
               TOTAL  0.00003361  0.00003202  0.00001859  0.00003910  0.00001060

                           56          57          58          59          60
       FREQUENCY:      3704.05     3712.80     3736.28     3777.41     3780.01  
        SYMMETRY:         A           A           A           A           A   
    REDUCED MASS:      1.09133     1.10022     1.10603     1.11642     1.11674
    IR INTENSITY:      0.55032     0.10233     0.06834     0.00319     0.01483

  1   C            X -0.00052640  0.00057366  0.00007855  0.01202179 -0.00453891
                   Y  0.00068564 -0.00156508 -0.00035474 -0.07888891  0.02885478
                   Z  0.00024234  0.00111156  0.00021998  0.03796623 -0.01331946
  2   C            X  0.00136007  0.00217066  0.00001644 -0.00111135  0.00116917
                   Y  0.00373650  0.00609216  0.00005839 -0.00088262  0.00414497
                   Z -0.00375860 -0.00580700 -0.00003140  0.00204790 -0.00321277
  3   C            X  0.00016197 -0.00017625  0.00001253  0.01128005  0.03178665
                   Y -0.00031928 -0.00049074 -0.00018994  0.00861422  0.02274297
                   Z  0.00047159  0.00178740  0.00027837 -0.02881775 -0.07926703
  4   C            X  0.00295651  0.01013561  0.00089919  0.00009032 -0.00001815
                   Y -0.00362871 -0.01194451 -0.00083591 -0.00008060 -0.00053841
                   Z -0.00809120 -0.02405673 -0.00217402  0.00003820 -0.00071825
  5   C            X -0.00248040 -0.00925215 -0.00060439 -0.00001260 -0.00014724
                   Y  0.01019689  0.04328588  0.00295850 -0.00019008  0.00044889
                   Z -0.01142717 -0.05767632 -0.00393187  0.00041294 -0.00062149
  6   C            X  0.00907294 -0.02131272 -0.00249104  0.00064003 -0.00067149
                   Y -0.01367763  0.02812482  0.00489260 -0.00030442  0.00046151
                   Z  0.00082559  0.00718740 -0.00049981 -0.00021852  0.00009931
  7   C            X  0.03301338 -0.00251814 -0.02421267  0.00012787 -0.00013448
                   Y -0.01846716 -0.00019195  0.02047899 -0.00032751  0.00027593
                   Z -0.05654617  0.00514257  0.03765667 -0.00062883  0.00038650
  8   C            X -0.00887531  0.00175004 -0.00944926 -0.00009104  0.00012238
                   Y -0.02720671  0.00790067 -0.05828775 -0.00007157 -0.00012913
                   Z  0.02969145 -0.00709572  0.04582117  0.00001284  0.00002293
  9   C            X  0.00064887 -0.00023780  0.00116612  0.00000845  0.00015246
                   Y  0.00019526 -0.00083739 -0.00070085  0.00006062  0.00003863
                   Z -0.00139671  0.00081468 -0.00197201  0.00007911  0.00012757
 10   O            X -0.00005338 -0.00001754 -0.00015856  0.00001322  0.00002737
                   Y -0.00012552  0.00018232  0.00023075 -0.00000709 -0.00000421
                   Z  0.00015605 -0.00005532  0.00021252 -0.00000635  0.00001230
 11   H            X  0.00184581 -0.00256768 -0.00041832 -0.13309717  0.04838900
                   Y -0.00715923  0.00997193  0.00245224  0.60463687 -0.22052364
                   Z -0.00095233  0.00123955  0.00023847  0.08372647 -0.03015831
 12   H            X -0.00045005 -0.00076272 -0.00049604 -0.00246558  0.00052541
                   Y  0.00032200  0.00803453  0.00209665  0.32380370 -0.11612776
                   Z -0.00098816 -0.01226249 -0.00339760 -0.53544613  0.19198944
 13   H            X -0.01215977 -0.01926339  0.00002322  0.00808550 -0.01341633
                   Y -0.04245575 -0.06728843 -0.00038893  0.01695396 -0.04568770
                   Z  0.04287273  0.06821426  0.00033819 -0.02126007  0.04283235
 14   H            X -0.00006606 -0.00083085  0.00007659  0.01496552  0.03995317
                   Y  0.00342570  0.00846190  0.00231239 -0.14741059 -0.40140769
                   Z -0.00430998 -0.01086325 -0.00256657  0.16712119  0.45387249
 15   H            X -0.00006191  0.00578495  0.00040655 -0.14942046 -0.41190536
                   Y -0.00014002 -0.00205047 -0.00017427  0.04473362  0.12237819
                   Z  0.00003273 -0.00729381 -0.00044557  0.17256475  0.47595095
 16   H            X -0.02673145 -0.08073955 -0.00607924 -0.00049967 -0.00307493
                   Y  0.03147517  0.09550204  0.00737165  0.00083114  0.00453708
                   Z  0.09198388  0.27320180  0.02089023  0.00195588  0.01233085
 17   H            X  0.01841845  0.07988370  0.00550476 -0.00035194  0.00081504
                   Y -0.10866919 -0.48968069 -0.03126389  0.00270172 -0.00532679
                   Z  0.13756479  0.62455159  0.03973269 -0.00360352  0.00660274
 18   H            X -0.11164973  0.23501476  0.03254814 -0.00783739  0.00599078
                   Y  0.14263063 -0.29810194 -0.04257886  0.00890278 -0.00724374
                   Z  0.01272951 -0.03259240 -0.00364815  0.00079575 -0.00062839
 19   H            X -0.37433308  0.03007528  0.24377286 -0.00336978  0.00231150
                   Y  0.21035506 -0.01570774 -0.13869431  0.00204993 -0.00129206
                   Z  0.64074754 -0.05158582 -0.41583629  0.00525813 -0.00350394
 20   H            X  0.08534835 -0.02166888  0.13896986  0.00047741 -0.00008449
                   Y  0.34951289 -0.08996427  0.57599442  0.00104483  0.00040462
                   Z -0.32694847  0.08405245 -0.53606095 -0.00070216 -0.00044222

 TRANS. SAYVETZ    X  0.00000097  0.00000006 -0.00000010 -0.00000000  0.00000005
                   Y  0.00000013 -0.00000012  0.00000036 -0.00000003  0.00000004
                   Z -0.00000010  0.00000056  0.00000018  0.00000007  0.00000001
               TOTAL  0.00000098  0.00000058  0.00000041  0.00000008  0.00000007

   ROT. SAYVETZ    X -0.00000958 -0.00000094 -0.00000064 -0.00001414 -0.00000768
                   Y  0.00001791  0.00000522 -0.00000784 -0.00000782 -0.00000648
                   Z -0.00001647  0.00001320  0.00000661  0.00002210  0.00000953
               TOTAL  0.00002615  0.00001422  0.00001028  0.00002738  0.00001385

 REFERENCE ON SAYVETZ CONDITIONS - A. SAYVETZ, J.CHEM.PHYS., 7, 383-389(1939).

 NOTE - THE MODES J,K ARE ORTHONORMALIZED ACCORDING TO
 SUM ON I   M(I) * (X(I,J)*X(I,K) + Y(I,J)*Y(I,K) + Z(I,J)*Z(I,K)) = DELTA(J,K)

  MODE FREQ(CM**-1)  SYMMETRY  RED. MASS  IR INTENS.
     1    1060.368    A        9.324762    0.064319
     2       0.124    A        6.618035    0.000054
     3       0.065    A        6.661270    0.000003
     4       0.014    A        6.713347    0.000001
     5       1.427    A        4.846816    0.013566
     6       5.090    A        4.957134    0.004261
     7       6.228    A        4.623915    0.010598
     8     104.128    A        4.137942    0.029768
     9     203.672    A        3.551415    0.016632
    10     265.246    A        4.167099    0.030700
    11     381.413    A        5.277078    0.035433
    12     437.613    A        2.307202    0.075445
    13     465.618    A        3.414288    0.109585
    14     493.041    A        3.992210    0.077131
    15     506.440    A        4.789709    0.105019
    16     552.685    A        1.961639    0.248758
    17     575.844    A        2.545743    0.264885
    18     610.977    A        4.901391    0.016009
    19     677.216    A        5.711273    0.076611
    20     840.260    A        3.287549    0.033026
    21     851.561    A        4.185859    0.032899
    22     926.856    A        1.667091    2.621643
    23     938.110    A        1.761288    0.121113
    24     964.342    A        1.772468    0.902794
    25    1004.116    A        1.456931    0.150382
    26    1040.445    A        1.587011    0.061921
    27    1092.368    A        1.590179    0.228114
    28    1119.736    A        2.732667    0.001837
    29    1166.737    A        2.141525    0.057038
    30    1209.133    A        1.282447    0.003083
    31    1214.219    A        1.508114    0.090277
    32    1240.834    A        1.141093    0.082506
    33    1270.216    A        1.287366    0.408624
    34    1301.611    A        1.134612    0.247658
    35    1318.495    A        1.219227    0.093700
    36    1341.283    A        1.231506    0.051314
    37    1365.533    A        1.156041    0.010773
    38    1386.067    A        1.275969    0.048824
    39    1418.707    A        1.831268    0.674004
    40    1471.058    A        1.323600    0.088145
    41    1488.627    A        1.670956    0.001689
    42    1599.389    A        1.598206    0.164866
    43    1637.161    A        1.712706    0.166615
    44    1668.014    A        1.524681    0.029342
    45    1718.729    A        2.486363    0.476468
    46    1758.374    A        1.912214    0.035434
    47    1813.504    A        1.256194    0.224313
    48    1856.578    A        2.349662    0.040074
    49    2009.745    A        7.078360    0.062101
    50    2080.655    A       10.639154    1.818275
    51    3630.081    A        1.062665    0.098875
    52    3634.318    A        1.064622    0.072453
    53    3686.084    A        1.091014    0.193446
    54    3693.055    A        1.094113    0.045482
    55    3695.664    A        1.095901    0.141585
    56    3704.053    A        1.091326    0.550322
    57    3712.801    A        1.100222    0.102330
    58    3736.280    A        1.106027    0.068341
    59    3777.406    A        1.116417    0.003193
    60    3780.007    A        1.116742    0.014831

     -------------------------------
     THERMOCHEMISTRY AT T=  298.15 K
     -------------------------------

 USING IDEAL GAS, RIGID ROTOR, HARMONIC NORMAL MODE APPROXIMATIONS.
 P=  1.01325E+05 PASCAL.
 ALL FREQUENCIES ARE SCALED BY   1.00000
 THE MOMENTS OF INERTIA ARE (IN AMU*BOHR**2)
            852.46660          1312.31602          1651.70141
 THE ROTATIONAL SYMMETRY NUMBER IS  1.0
 THE ROTATIONAL CONSTANTS ARE (IN GHZ)
      2.11514     1.37397     1.09166
   1 IMAGINARY FREQUENCY VIBRATION(S) IS(ARE) EXCLUDED
     FROM THE FOLLOWING THERMOCHEMICAL ANALYSIS.
      8 -     60 VIBRATIONAL MODES ARE USED IN THERMOCHEMISTRY.
 THE HARMONIC ZERO POINT ENERGY IS (SCALED BY   1.000)
        0.192360 HARTREE/MOLECULE    42218.049515 CM**-1/MOLECULE 
      120.707582 KCAL/MOL              505.040523 KJ/MOL

               Q               LN Q
 ELEC.     1.00000E+00       0.000000
 TRANS.    6.10192E+07      17.926699
 ROT.      4.86592E+05      13.095182
 VIB.      1.44467E+01       2.670465
 TOT.      4.28943E+14      33.692346

              E         H         G         CV        CP        S
           KJ/MOL    KJ/MOL    KJ/MOL   J/MOL-K   J/MOL-K   J/MOL-K
 ELEC.      0.000     0.000     0.000     0.000     0.000     0.000
 TRANS.     3.718     6.197   -44.439    12.472    20.786   169.836
 ROT.       3.718     3.718   -32.462    12.472    12.472   121.350
 VIB.     516.151   516.151   498.421    93.000    93.000    59.469
 TOTAL    523.588   526.067   421.519   117.943   126.257   350.655
 VIB. THERMAL CORRECTION E(T)-E(0) = H(T)-H(0) =     11110.734 J/MOL

              E         H         G         CV        CP        S
         KCAL/MOL  KCAL/MOL  KCAL/MOL CAL/MOL-K CAL/MOL-K CAL/MOL-K
 ELEC.      0.000     0.000     0.000     0.000     0.000     0.000
 TRANS.     0.889     1.481   -10.621     2.981     4.968    40.592
 ROT.       0.889     0.889    -7.759     2.981     2.981    29.003
 VIB.     123.363   123.363   119.125    22.227    22.227    14.213
 TOTAL    125.141   125.733   100.746    28.189    30.176    83.809
 VIB. THERMAL CORRECTION E(T)-E(0) = H(T)-H(0) =      2655.529 CAL/MOL
 ......END OF NORMAL COORDINATE ANALYSIS......
 STEP CPU TIME =     0.01 TOTAL CPU TIME =         68.7 (      1.1 MIN)
 TOTAL WALL CLOCK TIME=         68.8 SECONDS, CPU UTILIZATION IS    99.83%
               580000  WORDS OF DYNAMIC MEMORY USED
 EXECUTION OF GAMESS TERMINATED NORMALLY Sat Nov 13 19:25:02 2021
 DDI: 263640 bytes (0.3 MB / 0 MWords) used by master data server.

 ----------------------------------------
 CPU timing information for all processes
 ========================================
 0: 67.914 + 0.795 = 68.709
 ----------------------------------------
 ddikick.x: exited gracefully.
----- accounting info -----
Files used on the master node chemcompute-node-0.novalocal were:
-rw-r--r--. 1 chemcomp chemcomp     1519 Nov 13 19:23 /scratch/306114/342016.F05
-rw-rw-r--. 1 chemcomp chemcomp 17821584 Nov 13 19:24 /scratch/306114/342016.F08
-rw-rw-r--. 1 chemcomp chemcomp 70451200 Nov 13 19:25 /scratch/306114/342016.F10
-rw-rw-r--. 1 chemcomp chemcomp   878880 Nov 13 19:24 /scratch/306114/342016.F18
Sat Nov 13 19:25:05 UTC 2021
0.123u 0.080s 1:12.41 0.2%	0+0k 8+216io 0pf+0w
Finishing Up...
Looking for IR data...
Looking for Raman data...
vibramans not found
Looking for thermodynamics data...
Looking for UV-Vis data...
306114
