----- GAMESS execution script 'rungms' -----
This job is running on host chemcompute-node-0.novalocal
under operating system Linux at Mon Nov 15 03:35:20 UTC 2021
SLURM has assigned the following compute nodes to this run:
chemcompute-node-0
Available scratch disk space (Kbyte units) at beginning of the job is
Filesystem     1K-blocks     Used Available Use% Mounted on
/dev/sda1       62903276 17805244  45098032  29% /
GAMESS temporary binary files will be written to /scratch/306634
GAMESS supplementary output files will be written to /data/slurm/342648
Copying input file 342648.inp to your run's scratch directory...
The generated host list is
chemcompute-node-0.novalocal

 Distributed Data Interface kickoff program.
 Initiating 1 compute processes on 1 nodes to run the following command:
 /data/gamess-2019R1-ddi/gamess.00.x 342648 

          ******************************************************
          *         GAMESS VERSION = 30 JUN 2019 (R1)          *
          *             FROM IOWA STATE UNIVERSITY             *
          * M.W.SCHMIDT, K.K.BALDRIDGE, J.A.BOATZ, S.T.ELBERT, *
          *   M.S.GORDON, J.H.JENSEN, S.KOSEKI, N.MATSUNAGA,   *
          *          K.A.NGUYEN, S.J.SU, T.L.WINDUS,           *
          *       TOGETHER WITH M.DUPUIS, J.A.MONTGOMERY       *
          *         J.COMPUT.CHEM.  14, 1347-1363(1993)        *
          **************** 64 BIT LINUX VERSION ****************

  SINCE 1993, STUDENTS AND POSTDOCS WORKING AT IOWA STATE UNIVERSITY
  AND ALSO IN THEIR VARIOUS JOBS AFTER LEAVING ISU HAVE MADE IMPORTANT
  CONTRIBUTIONS TO THE CODE:
     IVANA ADAMOVIC, CHRISTINE AIKENS, YURI ALEXEEV, POOJA ARORA,
     ANDREY ASADCHEV, ROB BELL, PRADIPTA BANDYOPADHYAY, JONATHAN BENTZ,
     COLLEEN BERTONI, BRETT BODE, KURT BRORSEN, CALEB CARLIN, GALINA CHABAN,
     WEI CHEN, CHEOL HO CHOI, PAUL DAY, ALBERT DEFUSCO, NUWAN DESILVA,
     TIM DUDLEY, DMITRI FEDOROV, ALEX FINDLATER, GRAHAM FLETCHER, 
     MARK FREITAG, KURT GLAESEMANN, ANASTASIA GUNINA,
     DAN KEMP, GRANT MERRILL, NORIYUKI MINEZAWA, JONATHAN MULLIN,
     TAKESHI NAGATA, SEAN NEDD, HEATHER NETZLOFF, BOSILJKA NJEGIC, RYAN OLSON,
     MIKE PAK, BUU PHAM,
     SPENCER PRUITT, LUKE ROSKOP, JIM SHOEMAKER, LYUDMILA SLIPCHENKO,
     TONY SMITH, SAROM SOK LEANG, JIE SONG, TETSUYA TAKETSUGU, SIMON WEBB,
     PENG XU, SOOHAENG YOO, FEDERICO ZAHARIEV

  ADDITIONAL CODE HAS BEEN PROVIDED BY COLLABORATORS IN OTHER GROUPS:
     IOWA STATE UNIVERSITY:
          JOE IVANIC, AARON WEST, LAIMUTIS BYTAUTAS, KLAUS RUEDENBERG
     UNIVERSITY OF TOKYO: KIMIHIKO HIRAO, TAKAHITO NAKAJIMA,
          TAKAO TSUNEDA, MUNEAKI KAMIYA, SUSUMU YANAGISAWA,
          KIYOSHI YAGI, MAHITO CHIBA, SEIKEN TOKURA, NAOAKI KAWAKAMI
     UNIVERSITY OF AARHUS: FRANK JENSEN
     UNIVERSITY OF IOWA: VISVALDAS KAIRYS, HUI LI
     NATIONAL INST. OF STANDARDS AND TECHNOLOGY: WALT STEVENS, DAVID GARMER
     UNIVERSITY OF PISA: BENEDETTA MENNUCCI, JACOPO TOMASI
     UNIVERSITY OF MEMPHIS: HENRY KURTZ, PRAKASHAN KORAMBATH
     UNIVERSITY OF ALBERTA: TOBY ZENG, MARIUSZ KLOBUKOWSKI
     UNIVERSITY OF NEW ENGLAND: MARK SPACKMAN
     MIE UNIVERSITY: HIROAKI UMEDA
     NAT. INST. OF ADVANCED INDUSTRIAL SCIENCE AND TECHNOLOGY: KAZUO KITAURA
     MICHIGAN STATE UNIVERSITY:
          KAROL KOWALSKI, MARTA WLOCH, JEFFREY GOUR, JESSE LUTZ,
          WEI LI, JUN SHEN, J. EMILIANO DEUSTUA, PIOTR PIECUCH
     UNIVERSITY OF MINNESOTA:
          YINAN SHU
     UNIVERSITY OF SILESIA: MONIKA MUSIAL, STANISLAW KUCHARSKI
     FACULTES UNIVERSITAIRES NOTRE-DAME DE LA PAIX:
          OLIVIER QUINET, BENOIT CHAMPAGNE
     UNIVERSITY OF CALIFORNIA - SANTA BARBARA: BERNARD KIRTMAN
     INSTITUTE FOR MOLECULAR SCIENCE:
          KAZUYA ISHIMURA, MICHIO KATOUDA, AND SHIGERU NAGASE
     UNIVERSITY OF NOTRE DAME: ANNA POMOGAEVA, DAN CHIPMAN
     KYUSHU UNIVERSITY:
          HARUYUKI NAKANO,
          FENG LONG GU, JACEK KORCHOWIEC, MARCIN MAKOWSKI, AND YURIKO AOKI,
          HIROTOSHI MORI AND EISAKU MIYOSHI
     PENNSYLVANIA STATE UNIVERSITY:
          TZVETELIN IORDANOV, CHET SWALINA, JONATHAN SKONE,
          SHARON HAMMES-SCHIFFER
     WASEDA UNIVERSITY:
          MASATO KOBAYASHI, TOMOKO AKAMA, TSUGUKI TOUMA,
          TAKESHI YOSHIKAWA, YASUHIRO IKABATA, JUNJI SEINO,
          YUYA NAKAJIMA, HIROMI NAKAI
     NANJING UNIVERSITY: SHUHUA LI
     UNIVERSITY OF NEBRASKA:
          PEIFENG SU, DEJUN SI, NANDUN THELLAMUREGE, YALI WANG, HUI LI
     UNIVERSITY OF ZURICH: ROBERTO PEVERATI, KIM BALDRIDGE
     N. COPERNICUS UNIVERSITY AND JACKSON STATE UNIVERSITY:
          MARIA BARYSZ
     UNIVERSITY OF COPENHAGEN: Jimmy Kromann, CASPER STEINMANN
     TOKYO INSTITUTE OF TECHNOLOGY: HIROYA NAKATA
     NAGOYA UNIVERSITY: YOSHIO NISHIMOTO, STEPHAN IRLE
     MOSCOW STATE UNIVERSITY: VLADIMIR MIRONOV
     A.N.NESMEYANOV INSTITUTE OF ORGANOELEMENT COMPOUNDS OF RUSSIAN ACADEMY OF SCIENCES:
          IGOR S. GERASIMOV

 EXECUTION OF GAMESS BEGUN Mon Nov 15 03:35:20 2021

            ECHO OF THE FIRST FEW INPUT CARDS -
 INPUT CARD>File created by the GAMESS Input Deck Generator Plugin for Avogadro             
 INPUT CARD> $BASIS GBASIS=STO NGAUSS=3 $END                                                
 INPUT CARD> $CONTRL SCFTYP=RHF RUNTYP=IRC $END                                             
 INPUT CARD> $STATPT HESS=READ ihrep=5 $END                                                 
 INPUT CARD> $irc npoint=100 saddle=.t. tsengy=.t. forwrd=.t. opttol=0.0005 stride=0.1 $end 
 INPUT CARD> $DATA                                                                          
 INPUT CARD>Title                                                                           
 INPUT CARD>C1                                                                              
 INPUT CARD>C     6.0     3.95345473    -1.75477636    -0.98295647                          
 INPUT CARD>C     6.0     2.95981860    -1.44300950    -0.03829218                          
 INPUT CARD>C     6.0     2.75792503    -0.09853703     0.31540298                          
 INPUT CARD>C     6.0     4.42793703     0.55826086     1.03157544                          
 INPUT CARD>C     6.0     5.33990574    -0.50817543     0.95347673                          
 INPUT CARD>C     6.0     5.60945368    -0.99578512    -0.33944681                          
 INPUT CARD>C     6.0     5.83980417     0.07894489    -1.37862015                          
 INPUT CARD>C     6.0     5.42590046     1.31651151    -1.20330727                          
 INPUT CARD>C     6.0     4.67837048     1.71672416     0.04873953                          
 INPUT CARD>O     8.0     4.29997349     2.85908389     0.26635996                          
 INPUT CARD>H     1.0     4.17734003    -2.80610514    -1.13377786                          
 INPUT CARD>H     1.0     3.93437886    -1.20501411    -1.91671097                          
 INPUT CARD>H     1.0     2.75243545    -2.18734956     0.72190803                          
 INPUT CARD>H     1.0     2.66777158     0.61124110    -0.49897408                          
 INPUT CARD>H     1.0     2.05385613     0.10782373     1.11477029                          
 INPUT CARD>H     1.0     4.15083456     0.90577853     2.02308989                          
 INPUT CARD>H     1.0     5.44357157    -1.17641151     1.79956961                          
 INPUT CARD>H     1.0     6.29011917    -1.83810198    -0.42332232                          
 INPUT CARD>H     1.0     6.36556816    -0.21617463    -2.28021860                          
 INPUT CARD>H     1.0     5.61427259     2.09658980    -1.92911267                          
 INPUT CARD> $END                                                                           
 INPUT CARD>                                                                                
 INPUT CARD> $HESS                                                                          
 INPUT CARD>ENERGY IS     -416.0940647144 E(NUC) IS      511.4291206970                     
 INPUT CARD> 1  1 2.12764770E-01-2.18038835E-01-2.17148161E-01-1.49319296E-01-4.65297456E-02
 INPUT CARD> 1  2 1.12382509E-01 8.42969409E-02 1.45079536E-01 7.34760811E-02-1.58593670E-01
 INPUT CARD> 1  3 2.97275578E-02-3.55244937E-02 5.58194113E-02-1.26554451E-01-1.27308149E-01
 INPUT CARD> 1  4 1.07600264E-01 1.32504304E-01 1.56578101E-01-2.66915208E-02-3.40555971E-02
 INPUT CARD> 1  5 3.35446406E-03-8.22041906E-03 8.92940585E-03-4.80131464E-04 1.09203102E-02
 INPUT CARD> 1  6 3.31308538E-03 6.27574918E-03-2.47357191E-03 2.17623495E-03-2.42752257E-03
 INPUT CARD> 1  7-6.52299206E-02 9.07473778E-02 2.59378143E-02-2.85215948E-02 2.74871135E-02
 INPUT CARD> 1  8 1.64814902E-02-1.08115155E-04 6.15712326E-03-3.03995437E-04-1.93706934E-02
 INPUT CARD> 1  9-8.32287159E-03-5.54446803E-03-8.92338097E-04-4.43201218E-04-1.28555217E-03
 INPUT CARD> 1 10 7.35112072E-03 3.16025676E-03 5.95027664E-04 4.31588853E-04-4.87912764E-04
 INPUT CARD> 1 11 2.19133862E-03-2.43602470E-02-1.62170134E-02-8.97752025E-03 1.40086374E-03
 INPUT CARD> 1 12 5.88349710E-04 3.13452751E-04 3.19123952E-03 7.79441556E-04 1.41351034E-03
 INPUT CARD> 2  1-2.18038835E-01 8.47350907E-01-5.16279845E-02 9.72727156E-02-1.81704615E-01
 INPUT CARD> 2  2-6.81102553E-02 4.75343641E-02 1.44411318E-02-2.68327658E-02-2.51975279E-02
 INPUT CARD> 2  3 3.60555793E-03-9.37203845E-03 1.08431796E-02-2.87162093E-02-2.85254988E-02
 INPUT CARD> 2  4 2.99333870E-02-1.82336980E-02 3.35303729E-02-1.93683288E-02-1.82593741E-02
 INPUT CARD> 2  5-1.25344781E-03-2.64936322E-03 1.76277089E-03 1.89603367E-04 7.37691476E-04
 INPUT CARD> 2  6-5.31174849E-04 7.13306558E-04-2.37814726E-04 1.05704917E-03-3.68291902E-04
    1000000 WORDS OF MEMORY AVAILABLE

     BASIS OPTIONS
     -------------
     GBASIS=STO          IGAUSS=       3      POLAR=NONE    
     NDFUNC=       0     NFFUNC=       0     DIFFSP=       F
     NPFUNC=       0      DIFFS=       F     BASNAM=        


     RUN TITLE
     ---------
 Title                                                                           

 THE POINT GROUP OF THE MOLECULE IS C1      
 THE ORDER OF THE PRINCIPAL AXIS IS     0

 ATOM      ATOMIC                      COORDINATES (BOHR)
           CHARGE         X                   Y                   Z
 C           6.0     7.4709461446       -3.3160464901       -1.8575183862
 C           6.0     5.5932461274       -2.7268925527       -0.0723617277
 C           6.0     5.2117226014       -0.1862079863        0.5960252079
 C           6.0     8.3675876776        1.0549600551        1.9493949173
 C           6.0    10.0909586489       -0.9603123164        1.8018097554
 C           6.0    10.6003303960       -1.8817610195       -0.6414614583
 C           6.0    11.0356297033        0.1491842102       -2.6052143247
 C           6.0    10.2534651061        2.4878460136       -2.2739210193
 C           6.0     8.8408382762        3.2441382589        0.0921043565
 O           8.0     8.1257716506        5.4028851280        0.5033473385
 H           1.0     7.8940280142       -5.3027698073       -2.1425294863
 H           1.0     7.4348979773       -2.2771464792       -3.6220585310
 H           1.0     5.2013487994       -4.1334913078        1.3642083650
 H           1.0     5.0413572840        1.1550781914       -0.9429242862
 H           1.0     3.8812253039        0.2037573047        2.1066103874
 H           1.0     7.8439399388        1.7116732273        3.8230855406
 H           1.0    10.2868586619       -2.2230954027        3.4006934587
 H           1.0    11.8866016614       -3.4735090797       -0.7999631893
 H           1.0    12.0291795786       -0.4085108162       -4.3089883461
 H           1.0    10.6094368155        3.9619802307       -3.6454943457

          INTERNUCLEAR DISTANCES (ANGS.)
          ------------------------------

                1 C          2 C          3 C          4 C          5 C     

   1 C       0.0000000    1.4060235 *  2.4203630 *  3.1038063    2.6881283 *
   2 C       1.4060235 *  0.0000000    1.4048016 *  2.7027896 *  2.7426876 *
   3 C       2.4203630 *  1.4048016 *  0.0000000    1.9321559 *  2.6910158 *
   4 C       3.1038063    2.7027896 *  1.9321559 *  0.0000000    1.4053728 *
   5 C       2.6881283 *  2.7426876 *  2.6910158 *  1.4053728 *  0.0000000  
   6 C       1.9319692 *  2.7039360 *  3.0602448    2.3855277 *  1.4078603 *
   7 C       2.6603379 *  3.5223772    3.5212488    2.8341057 *  2.4562745 *
   8 C       3.4131305    3.8799196    3.3803751    2.5623380 *  2.8264102 *
   9 C       3.6934016    3.5979038    2.6560108 *  1.5397144 *  2.4912560 *
  10 O       4.7925539    4.5162856    3.3358417    2.4281096 *  3.5905465  
  11 H       1.0854326 *  2.1308395 *  3.3831626    4.0088044    3.3149165  
  12 H       1.0837435 *  2.1295226 *  2.7551167 *  3.4706096    3.2709429  
  13 H       2.1298192 *  1.0839531 *  2.1280071 *  3.2313428    3.0932592  
  14 H       2.7359201 *  2.1254329 *  1.0840307 *  2.3331462 *  3.2408344  
  15 H       3.3879509    2.1343394 *  1.0850281 *  2.4178658 *  3.3471768  
  16 H       4.0191822    3.3443415    2.4217847 *  1.0865796 *  2.1347666 *
  17 H       3.2089571    3.1012641    3.2522702    2.1518403 *  1.0831248 *
  18 H       2.4041910 *  3.3756848    4.0060201    3.3655616    2.1370975 *
  19 H       3.1414130    4.2579911    4.4459171    3.9143511    3.4050012  
  20 H       4.2995987    4.8114542    4.2444262    3.5411188    3.8947915  

                6 C          7 C          8 C          9 C         10 O     

   1 C       1.9319692 *  2.6603379 *  3.4131305    3.6934016    4.7925539  
   2 C       2.7039360 *  3.5223772    3.8799196    3.5979038    4.5162856  
   3 C       3.0602448    3.5212488    3.3803751    2.6560108 *  3.3358417  
   4 C       2.3855277 *  2.8341057 *  2.5623380 *  1.5397144 *  2.4281096 *
   5 C       1.4078603 *  2.4562745 *  2.8264102 *  2.4912560 *  3.5905465  
   6 C       0.0000000    1.5126094 *  2.4752096 *  2.8940130 *  4.1160364  
   7 C       1.5126094 *  0.0000000    1.3166708 *  2.4634538 *  3.5785767  
   8 C       2.4752096 *  1.3166708 *  0.0000000    1.5121483 *  2.4098056 *
   9 C       2.8940130 *  2.4634538 *  1.5121483 *  0.0000000    1.2229181 *
  10 O       4.1160364    3.5785767    2.4098056 *  1.2229181 *  0.0000000  
  11 H       2.4411411 *  3.3387495    4.3080977    4.7016342    5.8369334  
  12 H       2.3102845 *  2.3598174 *  3.0152401    3.5990379    4.6277803  
  13 H       3.2724384    4.3680837    4.8094606    4.4050168    5.2980080  
  14 H       3.3558122    3.3345025    2.9327063 *  2.3589385 *  2.8814261 *
  15 H       3.9968705    4.5333467    4.2667426    3.2577688    3.6516128  
  16 H       3.3652777    3.8868887    3.4934415    2.1986328 *  2.6313009 *
  17 H       2.1530290 *  3.4400305    3.9028511    3.4671563    4.4658450  
  18 H       1.0862036 *  2.1887088 *  3.3625640    3.9315856    5.1478050  
  19 H       2.2239822 *  1.0846212 *  2.0956718 *  3.4650800    4.4954375  
  20 H       3.4770452    2.1035203 *  1.0820350 *  2.2208354 *  2.6699961 *

               11 H         12 H         13 H         14 H         15 H     

   1 C       1.0854326 *  1.0837435 *  2.1298192 *  2.7359201 *  3.3879509  
   2 C       2.1308395 *  2.1295226 *  1.0839531 *  2.1254329 *  2.1343394 *
   3 C       3.3831626    2.7551167 *  2.1280071 *  1.0840307 *  1.0850281 *
   4 C       4.0088044    3.4706096    3.2313428    2.3331462 *  2.4178658 *
   5 C       3.3149165    3.2709429    3.0932592    3.2408344    3.3471768  
   6 C       2.4411411 *  2.3102845 *  3.2724384    3.3558122    3.9968705  
   7 C       3.3387495    2.3598174 *  4.3680837    3.3345025    4.5333467  
   8 C       4.3080977    3.0152401    4.8094606    2.9327063 *  4.2667426  
   9 C       4.7016342    3.5990379    4.4050168    2.3589385 *  3.2577688  
  10 O       5.8369334    4.6277803    5.2980080    2.8814261 *  3.6516128  
  11 H       0.0000000    1.7987515 *  2.4200789 *  3.7894628    4.2492510  
  12 H       1.7987515 *  0.0000000    3.0535690    2.6292689 *  3.8012876  
  13 H       2.4200789 *  3.0535690    0.0000000    3.0544772    2.4310850 *
  14 H       3.7894628    2.6292689 *  3.0544772    0.0000000    1.7984694 *
  15 H       4.2492510    3.8012876    2.4310850 *  1.7984694 *  0.0000000  
  16 H       4.8728428    4.4748552    3.6353866    2.9405841 *  2.4205567 *
  17 H       3.5866100    4.0111373    3.0701081    4.0229430    3.6889539  
  18 H       2.4301467 *  2.8601612 *  3.7348002    4.3733748    4.9089999  
  19 H       3.5791631    2.6496458 *  5.0944109    4.1870214    5.4974344  
  20 H       5.1704691    3.7044278    5.7939761    3.5963072    5.0889075  

               16 H         17 H         18 H         19 H         20 H     

   1 C       4.0191822    3.2089571    2.4041910 *  3.1414130    4.2995987  
   2 C       3.3443415    3.1012641    3.3756848    4.2579911    4.8114542  
   3 C       2.4217847 *  3.2522702    4.0060201    4.4459171    4.2444262  
   4 C       1.0865796 *  2.1518403 *  3.3655616    3.9143511    3.5411188  
   5 C       2.1347666 *  1.0831248 *  2.1370975 *  3.4050012    3.8947915  
   6 C       3.3652777    2.1530290 *  1.0862036 *  2.2239822 *  3.4770452  
   7 C       3.8868887    3.4400305    2.1887088 *  1.0846212 *  2.1035203 *
   8 C       3.4934415    3.9028511    3.3625640    2.0956718 *  1.0820350 *
   9 C       2.1986328 *  3.4671563    3.9315856    3.4650800    2.2208354 *
  10 O       2.6313009 *  4.4658450    5.1478050    4.4954375    2.6699961 *
  11 H       4.8728428    3.5866100    2.4301467 *  3.5791631    5.1704691  
  12 H       4.4748552    4.0111373    2.8601612 *  2.6496458 *  3.7044278  
  13 H       3.6353866    3.0701081    3.7348002    5.0944109    5.7939761  
  14 H       2.9405841 *  4.0229430    4.3733748    4.1870214    3.5963072  
  15 H       2.4205567 *  3.6889539    4.9089999    5.4974344    5.0889075  
  16 H       0.0000000    2.4610253 *  4.2532754    4.9681272    4.3794506  
  17 H       2.4610253 *  0.0000000    2.4689523 *  4.2914804    4.9643477  
  18 H       4.2532754    2.4689523 *  0.0000000    2.4666586 *  4.2668457  
  19 H       4.9681272    4.2914804    2.4666586 *  0.0000000    2.4569493 *
  20 H       4.3794506    4.9643477    4.2668457    2.4569493 *  0.0000000  

  * ... LESS THAN  3.000


     ATOMIC BASIS SET
     ----------------
 THE CONTRACTED PRIMITIVE FUNCTIONS HAVE BEEN UNNORMALIZED
 THE CONTRACTED BASIS FUNCTIONS ARE NOW NORMALIZED TO UNITY

  SHELL TYPE  PRIMITIVE        EXPONENT          CONTRACTION COEFFICIENT(S)

 C         

      1   S       1            71.6168373    0.154328967295
      1   S       2            13.0450963    0.535328142282
      1   S       3             3.5305122    0.444634542185

      2   L       4             2.9412494   -0.099967229187    0.155916274999
      2   L       5             0.6834831    0.399512826089    0.607683718598
      2   L       6             0.2222899    0.700115468880    0.391957393099

 C         

      3   S       7            71.6168373    0.154328967295
      3   S       8            13.0450963    0.535328142282
      3   S       9             3.5305122    0.444634542185

      4   L      10             2.9412494   -0.099967229187    0.155916274999
      4   L      11             0.6834831    0.399512826089    0.607683718598
      4   L      12             0.2222899    0.700115468880    0.391957393099

 C         

      5   S      13            71.6168373    0.154328967295
      5   S      14            13.0450963    0.535328142282
      5   S      15             3.5305122    0.444634542185

      6   L      16             2.9412494   -0.099967229187    0.155916274999
      6   L      17             0.6834831    0.399512826089    0.607683718598
      6   L      18             0.2222899    0.700115468880    0.391957393099

 C         

      7   S      19            71.6168373    0.154328967295
      7   S      20            13.0450963    0.535328142282
      7   S      21             3.5305122    0.444634542185

      8   L      22             2.9412494   -0.099967229187    0.155916274999
      8   L      23             0.6834831    0.399512826089    0.607683718598
      8   L      24             0.2222899    0.700115468880    0.391957393099

 C         

      9   S      25            71.6168373    0.154328967295
      9   S      26            13.0450963    0.535328142282
      9   S      27             3.5305122    0.444634542185

     10   L      28             2.9412494   -0.099967229187    0.155916274999
     10   L      29             0.6834831    0.399512826089    0.607683718598
     10   L      30             0.2222899    0.700115468880    0.391957393099

 C         

     11   S      31            71.6168373    0.154328967295
     11   S      32            13.0450963    0.535328142282
     11   S      33             3.5305122    0.444634542185

     12   L      34             2.9412494   -0.099967229187    0.155916274999
     12   L      35             0.6834831    0.399512826089    0.607683718598
     12   L      36             0.2222899    0.700115468880    0.391957393099

 C         

     13   S      37            71.6168373    0.154328967295
     13   S      38            13.0450963    0.535328142282
     13   S      39             3.5305122    0.444634542185

     14   L      40             2.9412494   -0.099967229187    0.155916274999
     14   L      41             0.6834831    0.399512826089    0.607683718598
     14   L      42             0.2222899    0.700115468880    0.391957393099

 C         

     15   S      43            71.6168373    0.154328967295
     15   S      44            13.0450963    0.535328142282
     15   S      45             3.5305122    0.444634542185

     16   L      46             2.9412494   -0.099967229187    0.155916274999
     16   L      47             0.6834831    0.399512826089    0.607683718598
     16   L      48             0.2222899    0.700115468880    0.391957393099

 C         

     17   S      49            71.6168373    0.154328967295
     17   S      50            13.0450963    0.535328142282
     17   S      51             3.5305122    0.444634542185

     18   L      52             2.9412494   -0.099967229187    0.155916274999
     18   L      53             0.6834831    0.399512826089    0.607683718598
     18   L      54             0.2222899    0.700115468880    0.391957393099

 O         

     19   S      55           130.7093214    0.154328967295
     19   S      56            23.8088661    0.535328142282
     19   S      57             6.4436083    0.444634542185

     20   L      58             5.0331513   -0.099967229187    0.155916274999
     20   L      59             1.1695961    0.399512826089    0.607683718598
     20   L      60             0.3803890    0.700115468880    0.391957393099

 H         

     21   S      61             3.4252509    0.154328967295
     21   S      62             0.6239137    0.535328142282
     21   S      63             0.1688554    0.444634542185

 H         

     22   S      64             3.4252509    0.154328967295
     22   S      65             0.6239137    0.535328142282
     22   S      66             0.1688554    0.444634542185

 H         

     23   S      67             3.4252509    0.154328967295
     23   S      68             0.6239137    0.535328142282
     23   S      69             0.1688554    0.444634542185

 H         

     24   S      70             3.4252509    0.154328967295
     24   S      71             0.6239137    0.535328142282
     24   S      72             0.1688554    0.444634542185

 H         

     25   S      73             3.4252509    0.154328967295
     25   S      74             0.6239137    0.535328142282
     25   S      75             0.1688554    0.444634542185

 H         

     26   S      76             3.4252509    0.154328967295
     26   S      77             0.6239137    0.535328142282
     26   S      78             0.1688554    0.444634542185

 H         

     27   S      79             3.4252509    0.154328967295
     27   S      80             0.6239137    0.535328142282
     27   S      81             0.1688554    0.444634542185

 H         

     28   S      82             3.4252509    0.154328967295
     28   S      83             0.6239137    0.535328142282
     28   S      84             0.1688554    0.444634542185

 H         

     29   S      85             3.4252509    0.154328967295
     29   S      86             0.6239137    0.535328142282
     29   S      87             0.1688554    0.444634542185

 H         

     30   S      88             3.4252509    0.154328967295
     30   S      89             0.6239137    0.535328142282
     30   S      90             0.1688554    0.444634542185

 TOTAL NUMBER OF BASIS SET SHELLS             =   30
 NUMBER OF CARTESIAN GAUSSIAN BASIS FUNCTIONS =   60
 NUMBER OF ELECTRONS                          =   72
 CHARGE OF MOLECULE                           =    0
 SPIN MULTIPLICITY                            =    1
 NUMBER OF OCCUPIED ORBITALS (ALPHA)          =   36
 NUMBER OF OCCUPIED ORBITALS (BETA )          =   36
 TOTAL NUMBER OF ATOMS                        =   20
 THE NUCLEAR REPULSION ENERGY IS      511.4291206970

     $CONTRL OPTIONS
     ---------------
 SCFTYP=RHF          RUNTYP=IRC          EXETYP=RUN     
 MPLEVL=       0     CITYP =NONE         CCTYP =NONE         VBTYP =NONE    
 DFTTYP=NONE         TDDFT =NONE    
 MULT  =       1     ICHARG=       0     NZVAR =       0     COORD =UNIQUE  
 PP    =NONE         RELWFN=NONE         LOCAL =NONE         NUMGRD=       F
 ISPHER=      -1     NOSYM =       0     MAXIT =      30     UNITS =ANGS    
 PLTORB=       F     MOLPLT=       F     AIMPAC=       F     FRIEND=        
 NPRINT=       7     IREST =       0     GEOM  =INPUT   
 NORMF =       0     NORMP =       0     ITOL  =      20     ICUT  =       9
 INTTYP=BEST         GRDTYP=BEST         QMTTOL= 1.0E-06

     $SYSTEM OPTIONS
     ---------------
  REPLICATED MEMORY=     1000000 WORDS (ON EVERY NODE).
 DISTRIBUTED MEMDDI=           0 MILLION WORDS IN AGGREGATE,
 MEMDDI DISTRIBUTED OVER   1 PROCESSORS IS           0 WORDS/PROCESSOR.
 TOTAL MEMORY REQUESTED ON EACH PROCESSOR=     1000000 WORDS.
 TIMLIM=      525600.00 MINUTES, OR     365.0 DAYS.
 PARALL= F  BALTYP=  DLB     KDIAG=    0  COREFL= F
 MXSEQ2=     300 MXSEQ3=     150  mem10=         0

          ----------------
          PROPERTIES INPUT
          ----------------

     MOMENTS            FIELD           POTENTIAL          DENSITY
 IEMOM =       1   IEFLD =       0   IEPOT =       0   IEDEN =       0
 WHERE =COMASS     WHERE =NUCLEI     WHERE =NUCLEI     WHERE =NUCLEI  
 OUTPUT=BOTH       OUTPUT=BOTH       OUTPUT=BOTH       OUTPUT=BOTH    
 IEMINT=       0   IEFINT=       0                     IEDINT=       0
                                                       MORB  =       0
          EXTRAPOLATION IN EFFECT
          SOSCF IN EFFECT
 ORBITAL PRINTING OPTION: NPREO=     1    60     2     1

     -------------------------------
     INTEGRAL TRANSFORMATION OPTIONS
     -------------------------------
     NWORD  =            0
     CUTOFF = 1.0E-09     MPTRAN =       0
     DIRTRF =       F     AOINTS =DUP     

          ----------------------
          INTEGRAL INPUT OPTIONS
          ----------------------
 NOPK  =       1 NORDER=       0 SCHWRZ=       T

     ------------------------------------------
     THE POINT GROUP IS C1 , NAXIS= 0, ORDER= 1
     ------------------------------------------

     DIMENSIONS OF THE SYMMETRY SUBSPACES ARE
 A   =   60

 ..... DONE SETTING UP THE RUN .....
 STEP CPU TIME =     0.06 TOTAL CPU TIME =          0.1 (      0.0 MIN)
 TOTAL WALL CLOCK TIME=          0.1 SECONDS, CPU UTILIZATION IS    75.00%

          -----------------------------
          INTRINSIC REACTION COORDINATE
          -----------------------------
          PACE   =GS2     
          STRIDE = 0.10000 BOHR*SQRT(AMU)
          NPOINT =     100
          NEXTPT =       0
          STOTAL =  0.0000 BOHR*SQRT(AMU)
          SAB    =  0.0000 BOHR*SQRT(AMU)
          NPRT   =       0
          NPUN   =       0

          SADDLE =       T
          TSENGY =       T
          FORWRD =       T
          EVIB   = 0.00050 HARTREE
          FREQ   =     0.0 CM**-1

          STABLZ =       F
          ELBOW  =  175.00 DEGREES
          DELTA  = 0.02500 BOHR

          READQB =       F
          EB     =        0.0000000000 HARTREES
          GBNORM =        0.0000000000 HARTREES/SQRT(AMU)-BOHR

          GCUT   = 0.0000500 HARTREES/SQRT(AMU)-BOHR
          RCUT   = 0.0005000 BOHR
          ACUT   =    5.00 DEGREES
          MXOPT  =      20
          IHUPD  =       2

 ATOMIC MASSES USED (IN AMU) ARE
     C             12.0000
     C             12.0000
     C             12.0000
     C             12.0000
     C             12.0000
     C             12.0000
     C             12.0000
     C             12.0000
     C             12.0000
     O             15.9949
     H              1.0078
     H              1.0078
     H              1.0078
     H              1.0078
     H              1.0078
     H              1.0078
     H              1.0078
     H              1.0078
     H              1.0078
     H              1.0078

 JUMP AWAY FROM SADDLE POINT WILL BE FOUND FROM THE INPUT HESSIAN MATRIX

 COMPUTING WAVEFUNCTION AT TRANSITION STATE...

          ********************
          1 ELECTRON INTEGRALS
          ********************
 ...... END OF ONE-ELECTRON INTEGRALS ......
 STEP CPU TIME =     0.03 TOTAL CPU TIME =          0.1 (      0.0 MIN)
 TOTAL WALL CLOCK TIME=          0.1 SECONDS, CPU UTILIZATION IS    75.00%

          -------------
          GUESS OPTIONS
          -------------
          GUESS =HUCKEL            NORB  =       0          NORDER=       0
          MIX   =       F          PRTMO =       F          PUNMO =       F
          TOLZ  = 1.0E-08          TOLE  = 1.0E-05
          SYMDEN=       F          PURIFY=       F

 INITIAL GUESS ORBITALS GENERATED BY HUCKEL   ROUTINE.
 HUCKEL GUESS REQUIRES     53820 WORDS.

 SYMMETRIES FOR INITIAL GUESS ORBITALS FOLLOW.   BOTH SET(S).
    36 ORBITALS ARE OCCUPIED (   10 CORE ORBITALS).
    11=A       12=A       13=A       14=A       15=A       16=A       17=A   
    18=A       19=A       20=A       21=A       22=A       23=A       24=A   
    25=A       26=A       27=A       28=A       29=A       30=A       31=A   
    32=A       33=A       34=A       35=A       36=A       37=A       38=A   
    39=A       40=A       41=A       42=A       43=A       44=A       45=A   
    46=A   
 ...... END OF INITIAL ORBITAL SELECTION ......
 STEP CPU TIME =     0.01 TOTAL CPU TIME =          0.1 (      0.0 MIN)
 TOTAL WALL CLOCK TIME=          0.1 SECONDS, CPU UTILIZATION IS    76.92%

                    ----------------------
                    AO INTEGRAL TECHNOLOGY
                    ----------------------
     S,P,L SHELL ROTATED AXIS INTEGRALS, REPROGRAMMED BY
        KAZUYA ISHIMURA (IMS) AND JOSE SIERRA (SYNSTAR).
     S,P,D,L SHELL ROTATED AXIS INTEGRALS PROGRAMMED BY
        KAZUYA ISHIMURA (INSTITUTE FOR MOLECULAR SCIENCE).
     S,P,D,F,G SHELL TO TOTAL QUARTET ANGULAR MOMENTUM SUM 5,
        ERIC PROGRAM BY GRAHAM FLETCHER (ELORET AND NASA ADVANCED
        SUPERCOMPUTING DIVISION, AMES RESEARCH CENTER).
     S,P,D,F,G,L SHELL GENERAL RYS QUADRATURE PROGRAMMED BY
        MICHEL DUPUIS (PACIFIC NORTHWEST NATIONAL LABORATORY).

          --------------------
          2 ELECTRON INTEGRALS
          --------------------

 THE -PK- OPTION IS OFF, THE INTEGRALS ARE NOT IN SUPERMATRIX FORM.
 STORING   15000 INTEGRALS/RECORD ON DISK, USING 12 BYTES/INTEGRAL.
 TWO ELECTRON INTEGRAL EVALUATION REQUIRES   89821 WORDS OF MEMORY.
 SCHWARZ INEQUALITY OVERHEAD:      1797 INTEGRALS, T=        0.00
 II,JST,KST,LST =  1  1  1  1 NREC =         1 INTLOC =    1
 II,JST,KST,LST =  2  1  1  1 NREC =         1 INTLOC =    2
 II,JST,KST,LST =  3  1  1  1 NREC =         1 INTLOC =   34
 II,JST,KST,LST =  4  1  1  1 NREC =         1 INTLOC =  144
 II,JST,KST,LST =  5  1  1  1 NREC =         1 INTLOC = 1366
 II,JST,KST,LST =  6  1  1  1 NREC =         1 INTLOC = 1964
 II,JST,KST,LST =  7  1  1  1 NREC =         1 INTLOC = 6867
 II,JST,KST,LST =  8  1  1  1 NREC =         1 INTLOC = 8487
 II,JST,KST,LST =  9  1  1  1 NREC =         2 INTLOC = 5916
 II,JST,KST,LST = 10  1  1  1 NREC =         2 INTLOC = 9720
 II,JST,KST,LST = 11  1  1  1 NREC =         4 INTLOC = 5095
 II,JST,KST,LST = 12  1  1  1 NREC =         4 INTLOC =12226
 II,JST,KST,LST = 13  1  1  1 NREC =         7 INTLOC =12376
 II,JST,KST,LST = 14  1  1  1 NREC =         8 INTLOC = 8951
 II,JST,KST,LST = 15  1  1  1 NREC =        13 INTLOC = 6626
 II,JST,KST,LST = 16  1  1  1 NREC =        14 INTLOC = 9440
 II,JST,KST,LST = 17  1  1  1 NREC =        21 INTLOC =13784
 II,JST,KST,LST = 18  1  1  1 NREC =        23 INTLOC = 9797
 II,JST,KST,LST = 19  1  1  1 NREC =        34 INTLOC = 2433
 II,JST,KST,LST = 20  1  1  1 NREC =        35 INTLOC =13143
 II,JST,KST,LST = 21  1  1  1 NREC =        47 INTLOC =14971
 II,JST,KST,LST = 22  1  1  1 NREC =        51 INTLOC =10516
 II,JST,KST,LST = 23  1  1  1 NREC =        55 INTLOC =14771
 II,JST,KST,LST = 24  1  1  1 NREC =        60 INTLOC = 3878
 II,JST,KST,LST = 25  1  1  1 NREC =        65 INTLOC = 2830
 II,JST,KST,LST = 26  1  1  1 NREC =        70 INTLOC = 3656
 II,JST,KST,LST = 27  1  1  1 NREC =        75 INTLOC =10584
 II,JST,KST,LST = 28  1  1  1 NREC =        81 INTLOC = 5954
 II,JST,KST,LST = 29  1  1  1 NREC =        87 INTLOC = 4001
 II,JST,KST,LST = 30  1  1  1 NREC =        93 INTLOC = 7023
 SCHWARZ INEQUALITY TEST SKIPPED       24010 INTEGRAL BLOCKS.
 TOTAL NUMBER OF NONZERO TWO-ELECTRON INTEGRALS =             1484887
         99 INTEGRAL RECORDS WERE STORED ON DISK FILE  8.
  ...... END OF TWO-ELECTRON INTEGRALS .....
 STEP CPU TIME =     0.30 TOTAL CPU TIME =          0.4 (      0.0 MIN)
 TOTAL WALL CLOCK TIME=          0.4 SECONDS, CPU UTILIZATION IS    90.91%

          --------------------------
                 RHF SCF CALCULATION
          --------------------------

     NUCLEAR ENERGY =       511.4291206970
     MAXIT =   30     NPUNCH=    2
     EXTRAP=T  DAMP=F  SHIFT=F  RSTRCT=F  DIIS=F  DEM=F  SOSCF=T
     DENSITY MATRIX CONV=  1.00E-05
     SOSCF WILL OPTIMIZE     864 ORBITAL ROTATIONS, SOGTOL=   0.250
     MEMORY REQUIRED FOR RHF ITERS=     59496 WORDS.

 ITER EX DEM     TOTAL ENERGY        E CHANGE  DENSITY CHANGE     ORB. GRAD
   1  0  0     -415.5142738128  -415.5142738128   0.525859474   0.000000000
          ---------------START SECOND ORDER SCF---------------
   2  1  0     -416.0270676089    -0.5127937960   0.291824433   0.066088592
   3  2  0     -416.0575282718    -0.0304606629   0.141980746   0.049836318
   4  3  0     -416.0929947179    -0.0354664462   0.025324082   0.007796492
   5  4  0     -416.0939324579    -0.0009377399   0.005723122   0.003106852
   6  5  0     -416.0940492425    -0.0001167846   0.002272484   0.000765422
   7  6  0     -416.0940625007    -0.0000132582   0.000650240   0.000260787
   8  7  0     -416.0940644627    -0.0000019620   0.000231762   0.000072954
   9  8  0     -416.0940646656    -0.0000002028   0.000147052   0.000030747
  10  9  0     -416.0940647061    -0.0000000405   0.000073182   0.000016900
  11 10  0     -416.0940647129    -0.0000000068   0.000024767   0.000004080
  12 11  0     -416.0940647142    -0.0000000013   0.000009786   0.000001594
  13 12  0     -416.0940647144    -0.0000000002   0.000004154   0.000000697

          -----------------
          DENSITY CONVERGED
          -----------------
     TIME TO FORM FOCK OPERATORS=       0.3 SECONDS (       0.0 SEC/ITER)
     TIME TO SOLVE SCF EQUATIONS=       0.1 SECONDS (       0.0 SEC/ITER)

 FINAL RHF ENERGY IS     -416.0940647144 AFTER  13 ITERATIONS

          ------------
          EIGENVECTORS
          ------------

                      1          2          3          4          5
                  -20.2645   -11.1197   -11.0567   -11.0499   -11.0469
                     A          A          A          A          A   
    1  C  1  S   -0.000000   0.000023  -0.026130  -0.005787   0.004744
    2  C  1  S    0.000003  -0.000004  -0.004001   0.000030   0.000145
    3  C  1  X    0.000001   0.000005  -0.002301  -0.000186  -0.000027
    4  C  1  Y   -0.000002   0.000015  -0.001085  -0.000173  -0.000008
    5  C  1  Z    0.000000  -0.000005  -0.000949  -0.000172  -0.000022
    6  C  2  S   -0.000001   0.000011  -0.000490   0.000059  -0.001576
    7  C  2  S    0.000012  -0.000036   0.000325   0.000058   0.002277
    8  C  2  X   -0.000004   0.000046   0.000186   0.000036  -0.000231
    9  C  2  Y    0.000005  -0.000016  -0.000021   0.000046   0.001491
   10  C  2  Z    0.000008  -0.000044  -0.000120  -0.000021   0.000414
   11  C  3  S   -0.000005  -0.000235  -0.000701   0.000851  -0.319017
   12  C  3  S   -0.000002   0.000319  -0.000025   0.000065  -0.014550
   13  C  3  X    0.000022  -0.000226  -0.000078   0.000005  -0.001958
   14  C  3  Y    0.000038  -0.000089   0.000019   0.000031  -0.000571
   15  C  3  Z    0.000016  -0.000121   0.000039   0.000009  -0.000718
   16  C  4  S   -0.000024  -0.001691  -0.004273  -0.008206   0.939078
   17  C  4  S    0.000270  -0.005340  -0.000085  -0.000325   0.035032
   18  C  4  X   -0.000155  -0.000644  -0.000004  -0.000078   0.000834
   19  C  4  Y    0.000401  -0.003157   0.000054   0.000023  -0.000379
   20  C  4  Z    0.000199   0.002390   0.000201   0.000151   0.000028
   21  C  5  S    0.000003  -0.000284   0.003095  -0.001097   0.004059
   22  C  5  S    0.000030   0.000057  -0.006845   0.000031  -0.006587
   23  C  5  X   -0.000046  -0.000028  -0.001000  -0.000085   0.002775
   24  C  5  Y   -0.000027  -0.000033   0.001616  -0.000067  -0.003343
   25  C  5  Z    0.000048   0.000019   0.004149   0.000097  -0.000327
   26  C  6  S    0.000003  -0.000243   0.991558   0.018905   0.004183
   27  C  6  S    0.000006  -0.000053   0.036317  -0.004974   0.000158
   28  C  6  X    0.000025   0.000013   0.000962  -0.000641   0.000141
   29  C  6  Y   -0.000031  -0.000100   0.001056  -0.003047  -0.000137
   30  C  6  Z   -0.000006   0.000016   0.000864   0.002712   0.000044
   31  C  7  S    0.000005  -0.000271  -0.018105   0.991816   0.008073
   32  C  7  S    0.000054   0.000108  -0.006636   0.035849   0.000221
   33  C  7  X    0.000017  -0.000033   0.000553  -0.000598   0.000101
   34  C  7  Y    0.000047  -0.000033   0.002957   0.001577  -0.000023
   35  C  7  Z   -0.000059   0.000075  -0.003101   0.000155  -0.000130
   36  C  8  S   -0.000025  -0.001006  -0.000981   0.020136  -0.001146
   37  C  8  S    0.000269  -0.005677   0.000303  -0.007398   0.000014
   38  C  8  X   -0.000097   0.002033   0.000023  -0.001443   0.000037
   39  C  8  Y    0.000503  -0.001285  -0.000133   0.004289   0.000054
   40  C  8  Z   -0.000037  -0.003345   0.000109   0.000627   0.000005
   41  C  9  S    0.000547   0.992569   0.000254   0.000332   0.002460
   42  C  9  S   -0.007208   0.032683  -0.000002   0.000161  -0.005398
   43  C  9  X    0.001981  -0.000158  -0.000047  -0.000046   0.000541
   44  C  9  Y   -0.005969   0.000424   0.000104   0.000142   0.002933
   45  C  9  Z   -0.001128  -0.000111   0.000082   0.000015  -0.002686
   46  O 10  S    0.994266   0.000160   0.000005   0.000013  -0.000018
   47  O 10  S    0.026004  -0.005797  -0.000052  -0.000116   0.000222
   48  O 10  X    0.001735  -0.000530  -0.000011  -0.000026  -0.000001
   49  O 10  Y   -0.005254   0.001604   0.000032   0.000054  -0.000157
   50  O 10  Z   -0.001000   0.000327  -0.000001   0.000027   0.000151
   51  H 11  S   -0.000002   0.000002   0.000336  -0.000018  -0.000017
   52  H 12  S   -0.000002   0.000008   0.000337  -0.000975  -0.000033
   53  H 13  S   -0.000002   0.000007  -0.000001   0.000001  -0.000018
   54  H 14  S    0.000085  -0.001088   0.000005  -0.000048   0.002382
   55  H 15  S   -0.000007  -0.000036  -0.000022  -0.000016   0.002363
   56  H 16  S   -0.000178  -0.000019  -0.000094  -0.000002  -0.006635
   57  H 17  S   -0.000020  -0.000055   0.000086  -0.000084   0.000075
   58  H 18  S   -0.000015  -0.000024  -0.006942  -0.000096  -0.000141
   59  H 19  S   -0.000022  -0.000038   0.000207  -0.006826  -0.000109
   60  H 20  S   -0.000191   0.000013  -0.000034   0.000010  -0.000063

                      6          7          8          9         10
                  -11.0460   -11.0458   -11.0267   -11.0150   -11.0080
                     A          A          A          A          A   
    1  C  1  S   -0.202239   0.970941  -0.000211   0.000876  -0.002489
    2  C  1  S   -0.007280   0.035445   0.000043   0.000284  -0.007133
    3  C  1  X    0.000295  -0.001535   0.000010  -0.000059   0.003168
    4  C  1  Y   -0.000109  -0.000264   0.000008   0.000003  -0.001073
    5  C  1  Z    0.000029  -0.000272  -0.000049  -0.000079  -0.003214
    6  C  2  S    0.002284   0.003841   0.000073  -0.016895   0.991973
    7  C  2  S   -0.004886  -0.007971   0.000026  -0.001097   0.036619
    8  C  2  X    0.001332  -0.002926   0.000007  -0.000602   0.002338
    9  C  2  Y   -0.004194   0.000204   0.000001  -0.000187   0.001040
   10  C  2  Z   -0.001664   0.002800   0.000006  -0.000319   0.000845
   11  C  3  S    0.919401   0.193119  -0.000272   0.000796  -0.002568
   12  C  3  S    0.032639   0.006983   0.000091   0.000295  -0.007150
   13  C  3  X   -0.001647  -0.000461  -0.000034  -0.000061  -0.000803
   14  C  3  Y   -0.001053  -0.000218   0.000070   0.000002   0.004435
   15  C  3  Z   -0.001073  -0.000130  -0.000031  -0.000033   0.001108
   16  C  4  S    0.314123   0.060686   0.001348  -0.003259   0.000512
   17  C  4  S    0.008604   0.001636   0.000232  -0.007194   0.000038
   18  C  4  X    0.002719   0.000583   0.000022  -0.002896  -0.000054
   19  C  4  Y    0.000907   0.000208   0.000048   0.003571   0.000153
   20  C  4  Z    0.001037   0.000271   0.000049   0.000258   0.000026
   21  C  5  S    0.000765  -0.000592  -0.002719   0.991966   0.017128
   22  C  5  S   -0.002063  -0.000483  -0.000213   0.036580   0.000147
   23  C  5  X    0.000841   0.000140  -0.000020  -0.002184   0.000536
   24  C  5  Y   -0.001053  -0.000195  -0.000160  -0.000474   0.000272
   25  C  5  Z   -0.000123  -0.000007   0.000158  -0.001312   0.000153
   26  C  6  S   -0.003465   0.027021   0.000634  -0.002283   0.000391
   27  C  6  S    0.000496  -0.001983   0.000394  -0.007128   0.000042
   28  C  6  X   -0.000360   0.002379   0.000099   0.000979   0.000083
   29  C  6  Y   -0.000307   0.001066   0.000053  -0.001532  -0.000061
   30  C  6  Z   -0.000159   0.000877  -0.000124  -0.004222  -0.000119
   31  C  7  S    0.000694   0.005548  -0.019610   0.001154  -0.000068
   32  C  7  S    0.000014   0.000180  -0.008948   0.000136   0.000008
   33  C  7  X    0.000042  -0.000014   0.001471  -0.000018  -0.000047
   34  C  7  Y   -0.000012  -0.000012  -0.004428  -0.000118   0.000012
   35  C  7  Z   -0.000024  -0.000077  -0.000635  -0.000147  -0.000005
   36  C  8  S   -0.000201   0.000256   0.991965   0.002810  -0.000032
   37  C  8  S    0.000063   0.000027   0.036555   0.000039  -0.000015
   38  C  8  X   -0.000034  -0.000022   0.000602  -0.000036  -0.000003
   39  C  8  Y    0.000015  -0.000006  -0.001820   0.000101   0.000003
   40  C  8  Z   -0.000002  -0.000011  -0.000075  -0.000173  -0.000002
   41  C  9  S    0.001092   0.000196   0.001995   0.000354  -0.000008
   42  C  9  S   -0.001650  -0.000304  -0.005871   0.000110  -0.000015
   43  C  9  X    0.000151   0.000024  -0.002091  -0.000161  -0.000013
   44  C  9  Y    0.000936   0.000176   0.001129   0.000071  -0.000023
   45  C  9  Z   -0.000858  -0.000164   0.003449   0.000022  -0.000046
   46  O 10  S   -0.000014  -0.000002  -0.000022   0.000008  -0.000000
   47  O 10  S    0.000105   0.000018   0.000248  -0.000084   0.000007
   48  O 10  X   -0.000027  -0.000009   0.000112   0.000017   0.000008
   49  O 10  Y   -0.000079  -0.000014  -0.000073   0.000049  -0.000003
   50  O 10  Z    0.000045   0.000007  -0.000179   0.000004   0.000002
   51  H 11  S    0.001307  -0.006811  -0.000010  -0.000030   0.000098
   52  H 12  S    0.001396  -0.006822  -0.000093  -0.000065  -0.000011
   53  H 13  S    0.000034   0.000064  -0.000004   0.000130  -0.007015
   54  H 14  S   -0.006402  -0.001389  -0.000219  -0.000047  -0.000003
   55  H 15  S   -0.006351  -0.001447  -0.000019  -0.000042   0.000096
   56  H 16  S   -0.002059  -0.000417  -0.000098   0.000108  -0.000034
   57  H 17  S    0.000028   0.000006  -0.000042  -0.006928  -0.000106
   58  H 18  S   -0.000068  -0.000066  -0.000092   0.000097  -0.000047
   59  H 19  S   -0.000034   0.000002   0.000270  -0.000106  -0.000002
   60  H 20  S   -0.000024  -0.000008  -0.006866  -0.000079   0.000001

                     11         12         13         14         15
                   -1.3155    -1.0943    -1.0174    -0.9712    -0.9379
                     A          A          A          A          A   
    1  C  1  S   -0.000756  -0.059793  -0.097204   0.080179  -0.074555
    2  C  1  S    0.001831   0.158783   0.262363  -0.221585   0.213973
    3  C  1  X    0.000044  -0.002837  -0.062289   0.035762   0.032556
    4  C  1  Y    0.000467   0.020283   0.014822  -0.007587  -0.003705
    5  C  1  Z    0.000314   0.022420   0.045580  -0.011197  -0.003668
    6  C  2  S   -0.001090  -0.059955  -0.141189   0.073248   0.017155
    7  C  2  S    0.002398   0.149295   0.366194  -0.194309  -0.046121
    8  C  2  X    0.000434   0.027540   0.038839  -0.028924   0.045876
    9  C  2  Y    0.001011   0.022429   0.046835   0.003685  -0.069057
   10  C  2  Z    0.000185  -0.006949  -0.010420   0.028420  -0.047289
   11  C  3  S   -0.003421  -0.054250  -0.113337   0.017268   0.095707
   12  C  3  S    0.008302   0.143964   0.306967  -0.043912  -0.271863
   13  C  3  X    0.002189   0.021609   0.008680   0.019721  -0.000941
   14  C  3  Y    0.001921  -0.020234  -0.068622   0.048239  -0.005584
   15  C  3  Z   -0.000214  -0.006917  -0.023518   0.028183  -0.000883
   16  C  4  S   -0.021302  -0.088122  -0.014265  -0.130114   0.075465
   17  C  4  S    0.053389   0.231618   0.041449   0.361141  -0.217560
   18  C  4  X    0.004747   0.034379  -0.030184   0.059072   0.026891
   19  C  4  Y    0.020544  -0.034095  -0.015877  -0.041537  -0.048933
   20  C  4  Z   -0.016813  -0.026944   0.005801   0.007098   0.022860
   21  C  5  S   -0.005510  -0.106522   0.005208  -0.125181  -0.055117
   22  C  5  S    0.012541   0.267441  -0.013591   0.334621   0.150098
   23  C  5  X   -0.003073  -0.027829  -0.020057  -0.054095   0.045877
   24  C  5  Y    0.004648   0.016579  -0.001444   0.047616  -0.080580
   25  C  5  Z   -0.001728  -0.057624   0.018250   0.000811  -0.073073
   26  C  6  S   -0.003185  -0.112356   0.030824  -0.014429  -0.131476
   27  C  6  S    0.007596   0.296680  -0.082975   0.035690   0.373977
   28  C  6  X   -0.000580  -0.014642  -0.030803  -0.007751   0.003780
   29  C  6  Y    0.002741   0.049827  -0.045199   0.004426  -0.013819
   30  C  6  Z    0.000610   0.019423   0.020804   0.106381   0.027928
   31  C  7  S   -0.005954  -0.101256   0.101133   0.099185  -0.000320
   32  C  7  S    0.014149   0.257805  -0.266174  -0.267059   0.004661
   33  C  7  X   -0.002811  -0.028888   0.018819   0.018914   0.015530
   34  C  7  Y    0.005626   0.014665  -0.057958  -0.065515  -0.128110
   35  C  7  Z    0.002498   0.043631  -0.018359   0.014659   0.032900
   36  C  8  S   -0.021555  -0.079543   0.099515   0.095187   0.091781
   37  C  8  S    0.052420   0.199600  -0.258330  -0.252500  -0.248512
   38  C  8  X   -0.013650   0.007222  -0.018267  -0.026372   0.014225
   39  C  8  Y    0.006475  -0.060029   0.061955   0.060160   0.001647
   40  C  8  Z    0.023023   0.014316  -0.002179   0.028556  -0.024408
   41  C  9  S   -0.127527  -0.035239   0.023030  -0.013454   0.067227
   42  C  9  S    0.295207   0.097806  -0.066227   0.038147  -0.198396
   43  C  9  X   -0.048515   0.025089  -0.038365  -0.027559  -0.029620
   44  C  9  Y    0.143426  -0.086158   0.028300  -0.052823   0.111362
   45  C  9  Z    0.027144  -0.013390   0.046783   0.085204   0.026443
   46  O 10  S   -0.214565   0.037889  -0.015667   0.010110  -0.047851
   47  O 10  S    0.749548  -0.141355   0.060116  -0.039624   0.191030
   48  O 10  X    0.051025  -0.002804  -0.006769  -0.007639  -0.003829
   49  O 10  Y   -0.155705   0.005845  -0.001611  -0.010342   0.022441
   50  O 10  Z   -0.029761   0.002190   0.008776   0.022739   0.004578
   51  H 11  S    0.000194   0.030073   0.057131  -0.056172   0.068437
   52  H 12  S    0.000434   0.038724   0.056036  -0.065730   0.062397
   53  H 13  S    0.000317   0.029482   0.083915  -0.047173  -0.011491
   54  H 14  S    0.003556   0.033578   0.070855  -0.010567  -0.085023
   55  H 15  S    0.001358   0.026504   0.067949  -0.005372  -0.080715
   56  H 16  S    0.008757   0.040206   0.014604   0.093315  -0.063521
   57  H 17  S    0.001499   0.049774   0.001792   0.086019   0.045338
   58  H 18  S    0.000807   0.055401  -0.016424   0.003981   0.117757
   59  H 19  S    0.001597   0.048257  -0.060385  -0.074618   0.007668
   60  H 20  S    0.008698   0.034037  -0.057384  -0.068553  -0.068009

                     16         17         18         19         20
                   -0.8528    -0.7758    -0.7541    -0.7087    -0.6569
                     A          A          A          A          A   
    1  C  1  S   -0.130128   0.038300  -0.006706   0.067448   0.005553
    2  C  1  S    0.378996  -0.119078   0.025538  -0.216390  -0.016763
    3  C  1  X   -0.038954  -0.051422   0.064719  -0.078039   0.056376
    4  C  1  Y   -0.039174   0.001302   0.005467   0.017136  -0.138538
    5  C  1  Z   -0.022200   0.091174  -0.037510   0.175468   0.029551
    6  C  2  S   -0.001248  -0.060881   0.046740  -0.113923  -0.006810
    7  C  2  S    0.003526   0.181730  -0.141508   0.352221   0.024247
    8  C  2  X    0.092811  -0.012116  -0.007129  -0.012219  -0.035157
    9  C  2  Y   -0.129241  -0.014268   0.047749  -0.094243  -0.097943
   10  C  2  Z   -0.101565   0.042693  -0.021243   0.108871   0.099257
   11  C  3  S    0.129193   0.014832  -0.038389   0.066097   0.002731
   12  C  3  S   -0.376308  -0.050293   0.118690  -0.212443  -0.007780
   13  C  3  X    0.055174  -0.005857  -0.028658   0.058447  -0.053814
   14  C  3  Y    0.009949  -0.100615   0.080882  -0.176541   0.007285
   15  C  3  Z   -0.000003  -0.012487  -0.034290   0.014161   0.130123
   16  C  4  S   -0.062798   0.079640   0.045082  -0.015122  -0.028327
   17  C  4  S    0.182731  -0.247580  -0.133444   0.048713   0.097464
   18  C  4  X    0.055449   0.066335  -0.041274   0.029355  -0.096575
   19  C  4  Y    0.049000  -0.130131   0.119402   0.112381   0.103965
   20  C  4  Z   -0.005280  -0.022298  -0.142732  -0.059227   0.177392
   21  C  5  S    0.006466  -0.098100   0.054279   0.048529   0.027107
   22  C  5  S   -0.018632   0.291434  -0.164905  -0.148963  -0.082675
   23  C  5  X   -0.045076   0.030195   0.074509   0.030435   0.043880
   24  C  5  Y    0.066220  -0.093105  -0.057995   0.058189  -0.093349
   25  C  5  Z    0.050186   0.000501  -0.139535  -0.082666   0.117848
   26  C  6  S    0.072488   0.009500  -0.083708  -0.031679  -0.033424
   27  C  6  S   -0.211203  -0.034352   0.259026   0.099260   0.112005
   28  C  6  X   -0.063195  -0.032449   0.030265   0.059510   0.148672
   29  C  6  Y   -0.028838  -0.008282  -0.059401   0.050419  -0.249130
   30  C  6  Z    0.001854   0.195830   0.011075  -0.054499  -0.035041
   31  C  7  S    0.055341   0.076690   0.085746  -0.021691   0.025875
   32  C  7  S   -0.161051  -0.233632  -0.254360   0.069417  -0.079223
   33  C  7  X   -0.025156  -0.031717  -0.043047   0.021587   0.099064
   34  C  7  Y    0.065106   0.132685  -0.092396  -0.087523  -0.045784
   35  C  7  Z   -0.011141   0.033525   0.127801   0.064917  -0.119509
   36  C  8  S   -0.038560  -0.086304  -0.005598   0.042312  -0.032392
   37  C  8  S    0.111438   0.256098   0.028468  -0.127782   0.113665
   38  C  8  X   -0.037872  -0.022899  -0.122968  -0.020225   0.020857
   39  C  8  Y    0.049313   0.107511   0.128480  -0.045702   0.194800
   40  C  8  Z    0.045369   0.009532   0.159457   0.103357  -0.101173
   41  C  9  S   -0.065261   0.002655  -0.105855  -0.054141  -0.013873
   42  C  9  S    0.199471  -0.008867   0.338979   0.176481   0.044220
   43  C  9  X    0.039062   0.092216   0.040845   0.008158   0.000531
   44  C  9  Y   -0.087259   0.064978  -0.087186  -0.069938   0.058530
   45  C  9  Z   -0.006358  -0.179079  -0.092106   0.078202   0.004129
   46  O 10  S    0.037838  -0.003274   0.058202   0.024419   0.028801
   47  O 10  S   -0.157353   0.014497  -0.255833  -0.109867  -0.137698
   48  O 10  X    0.017360   0.044418   0.038172   0.014272   0.036766
   49  O 10  Y   -0.035558   0.036886  -0.096544  -0.071506  -0.073178
   50  O 10  Z   -0.003519  -0.089264  -0.057974   0.041569  -0.018428
   51  H 11  S    0.141844  -0.057291   0.018798  -0.120708   0.100735
   52  H 12  S    0.120694  -0.096643   0.026139  -0.177680  -0.081200
   53  H 13  S    0.001052   0.092547  -0.082331   0.232623   0.113171
   54  H 14  S   -0.117783  -0.053224   0.103413  -0.168119  -0.070795
   55  H 15  S   -0.140828  -0.033673   0.046982  -0.121409   0.095293
   56  H 16  S    0.055507  -0.135690  -0.101650  -0.001632   0.195211
   57  H 17  S   -0.009158   0.145639  -0.103343  -0.121310   0.072765
   58  H 18  S   -0.078007  -0.030858   0.137710   0.037892   0.258228
   59  H 19  S   -0.065389  -0.135380  -0.160712   0.015186   0.077885
   60  H 20  S    0.036216   0.135705  -0.013976  -0.121236   0.192895

                     21         22         23         24         25
                   -0.6044    -0.5931    -0.5874    -0.5544    -0.5396
                     A          A          A          A          A   
    1  C  1  S    0.014342  -0.009300  -0.000335  -0.000461   0.005143
    2  C  1  S   -0.051354   0.027021  -0.003413   0.001117  -0.025365
    3  C  1  X   -0.098675  -0.013996  -0.078115   0.029459  -0.091105
    4  C  1  Y    0.246524  -0.166009  -0.034877  -0.191253  -0.118777
    5  C  1  Z    0.021089  -0.045994   0.158016   0.159560   0.198476
    6  C  2  S   -0.025567   0.007275  -0.006311   0.015832  -0.008135
    7  C  2  S    0.079319  -0.020369   0.019564  -0.052398   0.026686
    8  C  2  X    0.062929  -0.070022   0.089768   0.076833   0.091882
    9  C  2  Y    0.168745  -0.115151  -0.050359  -0.120621  -0.106148
   10  C  2  Z   -0.142794   0.024398  -0.110657   0.010808  -0.124391
   11  C  3  S    0.012195  -0.010652   0.006177  -0.004929   0.001786
   12  C  3  S   -0.044386   0.034177  -0.017652   0.026097  -0.001952
   13  C  3  X    0.139302  -0.124821   0.058525   0.051575   0.053455
   14  C  3  Y   -0.078266   0.091528   0.128155   0.157053   0.186376
   15  C  3  Z   -0.235875   0.018065  -0.149359  -0.035943  -0.201452
   16  C  4  S    0.003292   0.055948   0.007929  -0.020212  -0.010097
   17  C  4  S   -0.008551  -0.189972  -0.022716   0.070436   0.034365
   18  C  4  X    0.008534   0.063724  -0.097001   0.066534  -0.030128
   19  C  4  Y    0.011225   0.058351   0.201727  -0.161496  -0.054951
   20  C  4  Z   -0.008982  -0.125217  -0.081191  -0.212258   0.135084
   21  C  5  S   -0.011585  -0.056424   0.003906  -0.010005   0.017204
   22  C  5  S    0.041121   0.192160  -0.011961   0.028355  -0.056211
   23  C  5  X    0.001374   0.096554   0.116395  -0.134013  -0.016412
   24  C  5  Y   -0.050802  -0.124304  -0.166559   0.158185   0.012756
   25  C  5  Z    0.111528   0.156947  -0.096298  -0.190686   0.199549
   26  C  6  S    0.009897   0.054737  -0.011212   0.001549   0.007198
   27  C  6  S   -0.032799  -0.191859   0.034542  -0.007342  -0.021439
   28  C  6  X    0.042576   0.024267   0.005641  -0.076246   0.126052
   29  C  6  Y   -0.076539   0.035785  -0.093458   0.036866  -0.061079
   30  C  6  Z   -0.040877   0.049512   0.213831   0.045901  -0.155257
   31  C  7  S   -0.003688  -0.045458   0.009937   0.006529  -0.018366
   32  C  7  S    0.024346   0.151367  -0.052167  -0.011447   0.061753
   33  C  7  X    0.116344   0.087036  -0.028401   0.140525  -0.019205
   34  C  7  Y   -0.155061  -0.013568   0.257695  -0.149098  -0.024215
   35  C  7  Z   -0.192270  -0.124695  -0.025825  -0.191135   0.109790
   36  C  8  S    0.020898   0.045759  -0.022472   0.020217  -0.004385
   37  C  8  S   -0.055370  -0.151600   0.062458  -0.058481   0.013166
   38  C  8  X   -0.041839  -0.029317   0.121862  -0.010668  -0.078816
   39  C  8  Y    0.166002  -0.119424  -0.148439   0.213552  -0.089253
   40  C  8  Z   -0.041360   0.133171  -0.163526  -0.108860   0.191978
   41  C  9  S   -0.042811  -0.080180   0.012342   0.009092   0.022760
   42  C  9  S    0.146956   0.279840  -0.039794  -0.029267  -0.077334
   43  C  9  X   -0.028786  -0.024307  -0.167559  -0.046845   0.079793
   44  C  9  Y    0.061421   0.016652  -0.098775  -0.032984  -0.059817
   45  C  9  Z   -0.014809   0.035945   0.247493  -0.040642  -0.233955
   46  O 10  S    0.041043   0.049812  -0.005355  -0.009103  -0.034295
   47  O 10  S   -0.202033  -0.245432   0.026160   0.046550   0.178369
   48  O 10  X    0.056214   0.054709  -0.155555  -0.033023  -0.018735
   49  O 10  Y   -0.154404  -0.233885  -0.067433   0.057899   0.250465
   50  O 10  Z   -0.065255  -0.010050   0.243800  -0.073862  -0.168366
   51  H 11  S   -0.228568   0.143399  -0.000690   0.148351   0.056406
   52  H 12  S    0.071944  -0.018384  -0.130205  -0.198067  -0.208060
   53  H 13  S   -0.140128   0.081062  -0.039005   0.035049  -0.012460
   54  H 14  S    0.077753   0.066900   0.151179   0.117917   0.235408
   55  H 15  S   -0.238597   0.098301  -0.109423  -0.022763  -0.131345
   56  H 16  S   -0.019388  -0.176612   0.001066  -0.190849   0.112316
   57  H 17  S    0.107583   0.259206   0.024439  -0.208446   0.101276
   58  H 18  S    0.051625  -0.096162   0.063733  -0.063454   0.112440
   59  H 19  S    0.212460   0.194904  -0.074857   0.223249  -0.051564
   60  H 20  S    0.075951  -0.217900   0.049117   0.160315  -0.169693

                     26         27         28         29         30
                   -0.5170    -0.5079    -0.4880    -0.4776    -0.4470
                     A          A          A          A          A   
    1  C  1  S    0.009318  -0.009040  -0.008104  -0.029637   0.009781
    2  C  1  S   -0.036824   0.019979   0.031985   0.103538  -0.036555
    3  C  1  X    0.005773  -0.230509   0.091472  -0.149160   0.066876
    4  C  1  Y   -0.078900  -0.008229  -0.224295   0.139575  -0.154988
    5  C  1  Z   -0.204654   0.003480   0.116576   0.197877  -0.142975
    6  C  2  S   -0.013600  -0.015961   0.008842   0.005982  -0.003191
    7  C  2  S    0.048240   0.057042  -0.037325  -0.026280   0.011719
    8  C  2  X   -0.184268  -0.046983   0.047726   0.211967  -0.127934
    9  C  2  Y    0.112857  -0.108007   0.303250   0.022632   0.136219
   10  C  2  Z    0.031826  -0.217408  -0.042043  -0.202305   0.092947
   11  C  3  S   -0.009418   0.000533  -0.032607  -0.001514  -0.005691
   12  C  3  S    0.023555  -0.009707   0.113518   0.009959   0.018343
   13  C  3  X   -0.049560  -0.218980   0.088915  -0.070616   0.099400
   14  C  3  Y   -0.145116   0.125434  -0.235856   0.001524  -0.143767
   15  C  3  Z   -0.133655  -0.085455  -0.045930   0.300453  -0.128331
   16  C  4  S   -0.009651   0.008691  -0.001912   0.001195   0.000425
   17  C  4  S    0.027093  -0.042908   0.006914   0.002777   0.006568
   18  C  4  X    0.228512   0.149967   0.054134  -0.048852  -0.186913
   19  C  4  Y    0.045038   0.085373  -0.118174   0.072777   0.206506
   20  C  4  Z   -0.158854   0.176278   0.049878  -0.053867   0.150622
   21  C  5  S   -0.010418  -0.020069   0.006979   0.006903  -0.001640
   22  C  5  S    0.038542   0.070444  -0.027087  -0.024170   0.005107
   23  C  5  X    0.059570   0.163899  -0.078836   0.035639   0.188755
   24  C  5  Y    0.143504   0.146435   0.089854  -0.093457  -0.195399
   25  C  5  Z    0.080405  -0.102420  -0.026616  -0.067850  -0.236623
   26  C  6  S    0.019106  -0.011953   0.005474   0.010886  -0.004893
   27  C  6  S   -0.074945   0.033728  -0.016982  -0.042293   0.006417
   28  C  6  X    0.211961   0.130120   0.014820  -0.019187  -0.068456
   29  C  6  Y   -0.151797   0.236492  -0.102915  -0.098916   0.172700
   30  C  6  Z   -0.012214   0.063395   0.025234   0.144806   0.283467
   31  C  7  S    0.021615  -0.001881  -0.011261   0.004075  -0.002232
   32  C  7  S   -0.078969   0.013356   0.026635  -0.016029   0.015119
   33  C  7  X    0.110319   0.132079   0.049723   0.133502   0.104201
   34  C  7  Y    0.034950  -0.064700   0.175223   0.039910  -0.038216
   35  C  7  Z   -0.051987   0.146683   0.026985  -0.159664  -0.101801
   36  C  8  S   -0.009484   0.005617   0.001263   0.004311   0.011396
   37  C  8  S    0.035753  -0.014573  -0.016033  -0.015936  -0.039805
   38  C  8  X    0.061755   0.153004   0.138652  -0.000005  -0.053730
   39  C  8  Y    0.037374   0.147496  -0.135543  -0.004409   0.059335
   40  C  8  Z    0.044156  -0.005885   0.051733   0.158363   0.097852
   41  C  9  S    0.007871   0.011113  -0.009333  -0.015196   0.000791
   42  C  9  S   -0.020152  -0.045285   0.028123   0.061114  -0.000912
   43  C  9  X    0.164624   0.179231   0.120875   0.187098   0.039873
   44  C  9  Y   -0.253706   0.163105   0.220178  -0.151264  -0.075581
   45  C  9  Z    0.110992   0.121623   0.075879  -0.037847  -0.142685
   46  O 10  S   -0.051711   0.017247   0.031195  -0.026262  -0.013447
   47  O 10  S    0.276048  -0.093063  -0.171575   0.146762   0.078004
   48  O 10  X   -0.056285   0.212935   0.252875   0.057865  -0.009449
   49  O 10  Y    0.320535  -0.063380  -0.201340   0.261488   0.204788
   50  O 10  Z    0.212667   0.053000  -0.028252   0.009995  -0.174155
   51  H 11  S    0.085355  -0.033303   0.240190  -0.138437   0.170247
   52  H 12  S    0.096901  -0.005501  -0.214798  -0.053651   0.021209
   53  H 13  S    0.009413  -0.031958  -0.264853  -0.215004   0.003406
   54  H 14  S    0.014244   0.118811  -0.095345  -0.227868   0.010449
   55  H 15  S   -0.082195   0.092489  -0.073491   0.275952  -0.179041
   56  H 16  S   -0.163332   0.119266  -0.008732  -0.003915   0.260563
   57  H 17  S    0.005218  -0.104259  -0.100160  -0.008283  -0.046504
   58  H 18  S    0.201833  -0.092824   0.084743   0.027351  -0.202989
   59  H 19  S    0.044965  -0.033352  -0.029190   0.181774   0.168512
   60  H 20  S    0.026993   0.118653  -0.113320  -0.116699  -0.056128

                     31         32         33         34         35
                   -0.4434    -0.4185    -0.3647    -0.3155    -0.2824
                     A          A          A          A          A   
    1  C  1  S   -0.008528   0.002737  -0.002588   0.000069  -0.027066
    2  C  1  S    0.036444   0.004707  -0.005951  -0.000917   0.128640
    3  C  1  X    0.069493   0.236767  -0.108863  -0.002393   0.289755
    4  C  1  Y   -0.125128   0.122960   0.002245   0.012601   0.154708
    5  C  1  Z    0.160329   0.035099  -0.159023  -0.033739   0.137635
    6  C  2  S    0.003258   0.020123   0.012902   0.004043   0.006618
    7  C  2  S   -0.017020  -0.071300  -0.049083  -0.013479  -0.027406
    8  C  2  X    0.085161   0.056890   0.109786  -0.009732   0.039722
    9  C  2  Y    0.156270  -0.106436  -0.056403  -0.019268   0.047203
   10  C  2  Z   -0.027011   0.207138   0.085764   0.010427   0.105285
   11  C  3  S   -0.016421  -0.003709  -0.013769   0.002324   0.012556
   12  C  3  S    0.058401   0.014476   0.076266  -0.010720  -0.070017
   13  C  3  X    0.034081   0.071163   0.336785  -0.000709  -0.208944
   14  C  3  Y   -0.124667   0.160952   0.093826   0.021431  -0.033300
   15  C  3  Z    0.038339  -0.104796   0.140222  -0.024704  -0.093289
   16  C  4  S    0.025356   0.008798  -0.017283   0.030996   0.008919
   17  C  4  S   -0.092519  -0.029833   0.092267  -0.141383  -0.051210
   18  C  4  X   -0.050216  -0.043736  -0.282892  -0.053872   0.215872
   19  C  4  Y    0.128675   0.029253  -0.117062  -0.250483   0.158207
   20  C  4  Z   -0.044146   0.009368  -0.185930   0.216497   0.061909
   21  C  5  S    0.005244   0.016576   0.012164  -0.006351   0.003719
   22  C  5  S   -0.011122  -0.061848  -0.043277   0.019896  -0.011216
   23  C  5  X    0.056312  -0.096620  -0.012194  -0.133417  -0.008081
   24  C  5  Y   -0.133780  -0.133754  -0.089193   0.012420   0.050407
   25  C  5  Z    0.182327   0.002113   0.037372  -0.078910   0.061122
   26  C  6  S   -0.003088  -0.007895   0.018742   0.001576  -0.005782
   27  C  6  S    0.022577   0.042334  -0.082601  -0.009816   0.047568
   28  C  6  X   -0.089558  -0.249523   0.230228  -0.017399  -0.227448
   29  C  6  Y    0.229800  -0.086361   0.108478  -0.035769  -0.090600
   30  C  6  Z   -0.235206  -0.028798  -0.012669   0.089545  -0.066152
   31  C  7  S   -0.011242   0.004107  -0.010049   0.011982   0.005123
   32  C  7  S    0.058253  -0.013299   0.039800  -0.043419  -0.020654
   33  C  7  X   -0.023331  -0.012200   0.319587   0.177745   0.326281
   34  C  7  Y   -0.277502   0.011912   0.056025  -0.000932   0.126921
   35  C  7  Z    0.183761  -0.056174   0.257329  -0.010236   0.128571
   36  C  8  S   -0.004210  -0.000248   0.005898  -0.036784   0.007050
   37  C  8  S    0.033597   0.000511  -0.024559   0.164187  -0.034033
   38  C  8  X   -0.021918   0.080791   0.341483  -0.030712   0.396502
   39  C  8  Y    0.211794   0.015690   0.083151   0.088376   0.071309
   40  C  8  Z   -0.018561   0.070857   0.113311   0.319094   0.149853
   41  C  9  S   -0.003416  -0.002244   0.008100  -0.000924  -0.008857
   42  C  9  S    0.014517   0.011812  -0.029901   0.001869   0.037465
   43  C  9  X    0.028086   0.388589  -0.018426   0.034159  -0.140625
   44  C  9  Y   -0.127793   0.059760   0.030159   0.047451  -0.076791
   45  C  9  Z    0.117059   0.177989   0.024041  -0.187607  -0.029218
   46  O 10  S   -0.011981  -0.002950   0.001019   0.000346   0.000145
   47  O 10  S    0.070126   0.017801  -0.008533  -0.001786   0.001871
   48  O 10  X   -0.108460   0.413372   0.048314  -0.373883  -0.291362
   49  O 10  Y    0.063323   0.140718   0.000396  -0.245782  -0.011716
   50  O 10  Z    0.306155   0.219901  -0.090286   0.634583  -0.302631
   51  H 11  S    0.138067  -0.084679  -0.003621  -0.013354  -0.075772
   52  H 12  S   -0.194801   0.047816   0.132762   0.032529  -0.025231
   53  H 13  S   -0.164196   0.189573   0.063710   0.023047   0.028254
   54  H 14  S   -0.094638   0.175737  -0.049648   0.048368   0.062113
   55  H 15  S    0.016334  -0.094159  -0.079800  -0.020315   0.044746
   56  H 16  S   -0.032457   0.015231  -0.118627   0.109624   0.033555
   57  H 17  S    0.242397   0.044804   0.078775  -0.112479   0.018991
   58  H 18  S   -0.221826  -0.075058   0.019730   0.008981  -0.083334
   59  H 19  S   -0.069744   0.032965  -0.066828   0.115217   0.004253
   60  H 20  S    0.189538  -0.025422   0.040843  -0.120352   0.004817

                     36         37         38         39         40
                   -0.2114     0.1941     0.2213     0.3783     0.3917
                     A          A          A          A          A   
    1  C  1  S   -0.028069  -0.011024  -0.038343   0.030041  -0.039699
    2  C  1  S    0.104037   0.079979   0.188908  -0.130641   0.202121
    3  C  1  X    0.165556   0.220330   0.260632  -0.289265   0.379244
    4  C  1  Y    0.089057   0.069000   0.128924  -0.113351   0.150511
    5  C  1  Z    0.098437   0.055468   0.115196  -0.250211   0.137004
    6  C  2  S    0.024990  -0.022922  -0.003032  -0.002489  -0.005650
    7  C  2  S   -0.120325   0.127066   0.017336   0.018531   0.043495
    8  C  2  X    0.454336  -0.470251  -0.092290  -0.084981  -0.214725
    9  C  2  Y    0.063054  -0.102110   0.021712  -0.032851  -0.040517
   10  C  2  Z    0.328369  -0.315195  -0.016605  -0.069615  -0.144465
   11  C  3  S   -0.030849  -0.017660   0.032973  -0.051031  -0.009000
   12  C  3  S    0.117090   0.112563  -0.154928   0.244586   0.059397
   13  C  3  X    0.227054   0.234027  -0.209151   0.515312   0.033071
   14  C  3  Y    0.053240   0.126911  -0.056266   0.122374   0.106980
   15  C  3  Z    0.086789   0.112526  -0.066576   0.251438  -0.008611
   16  C  4  S    0.033835  -0.014871  -0.015675   0.053207  -0.023186
   17  C  4  S   -0.134186   0.094768   0.061121  -0.256027   0.134089
   18  C  4  X    0.179186  -0.250255  -0.133382   0.459461  -0.083270
   19  C  4  Y    0.077513  -0.061075  -0.063804   0.247009  -0.085830
   20  C  4  Z    0.112462  -0.092113  -0.060487   0.194934  -0.013263
   21  C  5  S   -0.024937  -0.022704  -0.002364   0.007312   0.020400
   22  C  5  S    0.119016   0.126020   0.011694  -0.040775  -0.112292
   23  C  5  X    0.471942   0.536138   0.021715  -0.064616  -0.064086
   24  C  5  Y    0.306258   0.310386   0.071377   0.011545  -0.104581
   25  C  5  Z    0.052549   0.100309   0.048441   0.048550  -0.011799
   26  C  6  S    0.030973  -0.016833   0.010645  -0.056178   0.020830
   27  C  6  S   -0.123071   0.102666  -0.029620   0.287171  -0.087816
   28  C  6  X    0.225736  -0.233321   0.102105  -0.432299   0.285658
   29  C  6  Y    0.079922  -0.120231   0.042492  -0.195140   0.108422
   30  C  6  Z    0.071567  -0.132076   0.019127  -0.088082   0.094029
   31  C  7  S    0.009331   0.017700   0.004961   0.000456  -0.000825
   32  C  7  S   -0.038583  -0.084962  -0.022771  -0.003604   0.007024
   33  C  7  X   -0.045451  -0.087526   0.480947   0.399400   0.279067
   34  C  7  Y    0.017942   0.052212   0.148186   0.107136   0.068724
   35  C  7  Z   -0.067224  -0.122224   0.214936   0.191207   0.127788
   36  C  8  S   -0.004574  -0.008418  -0.001049  -0.002257  -0.002056
   37  C  8  S    0.020411   0.037503   0.004842   0.013241   0.011621
   38  C  8  X   -0.141448   0.162499  -0.331798  -0.304245  -0.465864
   39  C  8  Y   -0.027819   0.044485  -0.085589  -0.077697  -0.114003
   40  C  8  Z   -0.034279   0.109241  -0.178370  -0.166890  -0.245705
   41  C  9  S    0.009393   0.019904  -0.001429  -0.001271   0.000227
   42  C  9  S   -0.040013  -0.095788   0.005359   0.009847  -0.000489
   43  C  9  X    0.015561   0.008638  -0.409924  -0.015841   0.562424
   44  C  9  Y    0.046381   0.077542  -0.101859   0.007387   0.130941
   45  C  9  Z   -0.051292  -0.103372  -0.216748  -0.008746   0.291177
   46  O 10  S   -0.000156  -0.002396  -0.000374   0.001606  -0.000477
   47  O 10  S   -0.001115   0.010687   0.002602  -0.010825   0.002582
   48  O 10  X   -0.046798   0.003789   0.478560   0.005896  -0.400913
   49  O 10  Y   -0.043045  -0.039973   0.108826   0.019149  -0.096671
   50  O 10  Z    0.065282   0.066472   0.246440   0.006677  -0.205967
   51  H 11  S   -0.002690  -0.057167  -0.044854  -0.017264  -0.035023
   52  H 12  S    0.077206  -0.150062  -0.028986  -0.083535  -0.045198
   53  H 13  S    0.052563  -0.020218  -0.000703  -0.000231   0.013964
   54  H 14  S    0.070326  -0.142220  -0.009652   0.020683  -0.080131
   55  H 15  S   -0.001660  -0.074820   0.025010  -0.009860  -0.038247
   56  H 16  S    0.008040  -0.066711   0.021737  -0.007634  -0.093510
   57  H 17  S   -0.063386  -0.024059  -0.002772   0.003116   0.033346
   58  H 18  S    0.000889  -0.072424  -0.058846  -0.073163  -0.076618
   59  H 19  S    0.024628   0.034396   0.000908   0.003175  -0.017919
   60  H 20  S   -0.025949  -0.047887  -0.013310  -0.017668  -0.011208

                     41         42         43         44         45
                    0.5297     0.5709     0.5867     0.6195     0.6258
                     A          A          A          A          A   
    1  C  1  S   -0.013691  -0.023574   0.000826  -0.006205   0.036299
    2  C  1  S    0.054120   0.152621  -0.004503   0.041850  -0.227772
    3  C  1  X    0.446258  -0.016485  -0.012852  -0.055031  -0.062419
    4  C  1  Y    0.168393  -0.257932   0.156632   0.064786   0.354903
    5  C  1  Z    0.158670   0.069889  -0.149897  -0.037401  -0.167092
    6  C  2  S   -0.034026  -0.020573   0.011702   0.002631   0.045140
    7  C  2  S    0.212432   0.127689  -0.073546  -0.018898  -0.285747
    8  C  2  X   -0.288293  -0.059766   0.054718  -0.040627   0.167198
    9  C  2  Y   -0.019754  -0.178184   0.120657   0.009448   0.352900
   10  C  2  Z   -0.227266   0.169684  -0.112287   0.016361  -0.302562
   11  C  3  S   -0.014431  -0.012456   0.023733   0.027330   0.030289
   12  C  3  S    0.057844   0.081319  -0.152146  -0.170225  -0.189520
   13  C  3  X    0.427592  -0.114077   0.120391   0.046283   0.121049
   14  C  3  Y    0.202353  -0.119546   0.018191  -0.096512   0.119766
   15  C  3  Z    0.205632   0.241530  -0.104220   0.113460  -0.375619
   16  C  4  S    0.046079   0.000972   0.048444   0.106419  -0.009769
   17  C  4  S   -0.242623   0.016744  -0.294640  -0.623055   0.071390
   18  C  4  X    0.464939  -0.099670   0.047596  -0.186918  -0.107050
   19  C  4  Y    0.093538  -0.194466  -0.124680  -0.491168  -0.094303
   20  C  4  Z    0.232844   0.375637  -0.118193   0.240369   0.210473
   21  C  5  S    0.010921  -0.045112   0.018493   0.004063  -0.051719
   22  C  5  S   -0.081764   0.282168  -0.118671  -0.028283   0.325455
   23  C  5  X   -0.321092   0.074950  -0.058561   0.062376   0.103879
   24  C  5  Y   -0.200093  -0.198642   0.054975   0.128774  -0.176699
   25  C  5  Z   -0.013748   0.253432  -0.167910   0.139004   0.253787
   26  C  6  S    0.042588  -0.052125  -0.066793  -0.013310   0.007584
   27  C  6  S   -0.223901   0.328921   0.386621   0.074667  -0.030692
   28  C  6  X    0.412711   0.201605   0.149082  -0.145644   0.011145
   29  C  6  Y    0.183939  -0.282024   0.312433   0.186047  -0.322265
   30  C  6  Z    0.275917   0.012387  -0.353220   0.022999   0.127379
   31  C  7  S   -0.018251  -0.050754   0.024434   0.054544  -0.052286
   32  C  7  S    0.104996   0.307923  -0.132476  -0.363025   0.313337
   33  C  7  X   -0.261895   0.105072   0.162619  -0.102864   0.023439
   34  C  7  Y   -0.118003  -0.134502   0.219271   0.161590  -0.195708
   35  C  7  Z   -0.055624  -0.221119  -0.545226   0.192819   0.060912
   36  C  8  S    0.015556   0.013117   0.024468   0.107470   0.001478
   37  C  8  S   -0.091063  -0.055317  -0.126815  -0.662207  -0.003139
   38  C  8  X    0.221103   0.139085   0.285342   0.054366  -0.041108
   39  C  8  Y    0.040782   0.008013   0.046384  -0.400440  -0.021199
   40  C  8  Z    0.132413  -0.216463  -0.518138   0.005446   0.072514
   41  C  9  S   -0.020654  -0.091778  -0.093769  -0.123878  -0.019408
   42  C  9  S    0.118884   0.540296   0.553749   0.727456   0.111987
   43  C  9  X   -0.279698   0.000627   0.186381   0.089500  -0.065611
   44  C  9  Y   -0.120058  -0.142637  -0.075555  -0.421155  -0.072204
   45  C  9  Z   -0.065998   0.051625  -0.322626   0.178115   0.147313
   46  O 10  S    0.003506   0.018709   0.014191   0.006533   0.003862
   47  O 10  S   -0.021095  -0.116922  -0.084837  -0.025381  -0.025089
   48  O 10  X    0.140257  -0.036459  -0.079734  -0.011204   0.008306
   49  O 10  Y    0.070067   0.169657   0.086047   0.057785   0.049931
   50  O 10  Z    0.052262   0.009339   0.111004  -0.075776  -0.039139
   51  H 11  S    0.075108  -0.318520   0.158373   0.045331   0.459479
   52  H 12  S    0.000278   0.133349  -0.222900  -0.089744  -0.241495
   53  H 13  S   -0.044219  -0.348176   0.224882  -0.008794   0.658632
   54  H 14  S   -0.008913   0.229099  -0.026031   0.225576  -0.287451
   55  H 15  S    0.070613  -0.286653   0.231562   0.030482   0.443457
   56  H 16  S    0.005877  -0.319475   0.335914   0.217337  -0.236614
   57  H 17  S   -0.040958  -0.514852   0.258482  -0.047167  -0.510994
   58  H 18  S    0.030539  -0.527776  -0.085612   0.194852  -0.235392
   59  H 19  S   -0.012211  -0.461564  -0.417981   0.427630  -0.171494
   60  H 20  S    0.089849  -0.137208  -0.388822   0.657605   0.088387

                     46         47         48         49         50
                    0.6607     0.6978     0.7140     0.7291     0.7432
                     A          A          A          A          A   
    1  C  1  S    0.026938  -0.102925  -0.055727   0.120626  -0.070394
    2  C  1  S   -0.166457   0.655564   0.346993  -0.770599   0.444501
    3  C  1  X    0.115004   0.068468  -0.193917   0.162067   0.132727
    4  C  1  Y   -0.249710  -0.339203   0.190418  -0.375939  -0.118620
    5  C  1  Z    0.120927  -0.315377   0.020732   0.358575  -0.312307
    6  C  2  S   -0.008923   0.053940   0.077827  -0.012901  -0.012342
    7  C  2  S    0.052126  -0.328285  -0.483328   0.080638   0.104606
    8  C  2  X    0.029848   0.111071  -0.042744   0.174832   0.067812
    9  C  2  Y   -0.141938  -0.055810   0.084676  -0.227368  -0.024420
   10  C  2  Z   -0.060063  -0.084265   0.034490  -0.181515   0.037215
   11  C  3  S    0.002518  -0.062553  -0.127669  -0.091682  -0.073079
   12  C  3  S   -0.018282   0.388041   0.815548   0.589350   0.461115
   13  C  3  X    0.137601   0.037994  -0.370258   0.028662  -0.117047
   14  C  3  Y   -0.080308  -0.024796   0.216611   0.183103   0.289382
   15  C  3  Z   -0.202869  -0.302089   0.109871  -0.507916  -0.092690
   16  C  4  S    0.017255  -0.015893  -0.057366   0.025049   0.126614
   17  C  4  S   -0.116762   0.100146   0.372798  -0.139412  -0.789474
   18  C  4  X    0.237020   0.201824   0.115360  -0.086254  -0.163657
   19  C  4  Y   -0.217358  -0.129576   0.057871   0.032693   0.099427
   20  C  4  Z   -0.469292  -0.053442   0.153487   0.222467  -0.103606
   21  C  5  S    0.005898   0.044711   0.067056  -0.000145  -0.145018
   22  C  5  S   -0.043486  -0.279419  -0.433280   0.003923   0.923180
   23  C  5  X    0.212809   0.005561   0.026191  -0.082922  -0.156573
   24  C  5  Y   -0.125635  -0.122333   0.023877   0.104081  -0.001881
   25  C  5  Z   -0.210539   0.006378   0.025786   0.148150  -0.072471
   26  C  6  S    0.070782  -0.090737   0.009010  -0.044851   0.116223
   27  C  6  S   -0.418998   0.573755  -0.049616   0.262889  -0.728642
   28  C  6  X   -0.025370   0.379226  -0.117881  -0.099392  -0.122374
   29  C  6  Y   -0.470152  -0.140995   0.072011   0.199318   0.127555
   30  C  6  Z    0.088112  -0.096791   0.293992  -0.035058  -0.214231
   31  C  7  S   -0.111342   0.088474  -0.075169   0.042370  -0.027495
   32  C  7  S    0.682942  -0.576869   0.474903  -0.257766   0.168265
   33  C  7  X    0.096647  -0.141210  -0.048539   0.023896   0.076491
   34  C  7  Y   -0.246718   0.046203   0.079751   0.176403  -0.156776
   35  C  7  Z    0.072717   0.009783  -0.020872   0.012766  -0.046148
   36  C  8  S    0.091532  -0.030933   0.108515   0.006097  -0.032929
   37  C  8  S   -0.552610   0.181333  -0.696675  -0.043433   0.220934
   38  C  8  X    0.009429   0.044140   0.055630   0.035840  -0.047467
   39  C  8  Y   -0.175153  -0.205700  -0.026735   0.011335   0.065308
   40  C  8  Z   -0.004129   0.139402  -0.057536  -0.119145   0.002063
   41  C  9  S    0.002516   0.035221  -0.037000  -0.046853  -0.023043
   42  C  9  S   -0.027573  -0.224698   0.220159   0.283329   0.136891
   43  C  9  X    0.189262  -0.063048   0.108627  -0.041124  -0.105737
   44  C  9  Y   -0.088635  -0.134926   0.040942  -0.054576  -0.067102
   45  C  9  Z   -0.289030   0.014227  -0.416194  -0.003107   0.257743
   46  O 10  S   -0.017169  -0.021041   0.005269   0.010528   0.008716
   47  O 10  S    0.122560   0.143932  -0.033192  -0.070493  -0.059247
   48  O 10  X    0.002693   0.086147  -0.037784  -0.016111   0.003986
   49  O 10  Y   -0.178884  -0.153538   0.011345   0.092908   0.090882
[...]
   29  C  6  Y    0.137076  -0.640092   0.167384  -0.067081   0.007702
   30  C  6  Z   -0.599977  -0.154319  -0.056398   0.218137   0.023126
   31  C  7  S    0.038544  -0.073001  -0.014195  -0.006817  -0.016208
   32  C  7  S   -0.219242   0.429961   0.096404   0.030854   0.128859
   33  C  7  X    0.147511  -0.007969   0.134932  -0.032508   0.069866
   34  C  7  Y    0.166506  -0.319502   0.093414  -0.038555  -0.063683
   35  C  7  Z   -0.362374  -0.001376  -0.463615   0.104375  -0.164350
   36  C  8  S   -0.023705  -0.029765   0.041881   0.021949  -0.117021
   37  C  8  S    0.148881   0.194450  -0.227312  -0.135987   0.721207
   38  C  8  X    0.070311   0.007238   0.204328  -0.019351  -0.016044
   39  C  8  Y    0.024687   0.034031   0.009415  -0.084375   0.419995
   40  C  8  Z   -0.269784   0.064139  -0.522255   0.067633   0.023540
   41  C  9  S    0.004465   0.032599  -0.152553  -0.053561   0.091782
   42  C  9  S   -0.026807  -0.191788   0.904046   0.316790  -0.533893
   43  C  9  X    0.036195  -0.076561   0.075112  -0.014839  -0.247985
   44  C  9  Y    0.070765   0.063064  -0.223995  -0.145016   0.313049
   45  C  9  Z   -0.294637   0.010605  -0.127132   0.222656   0.006391
   46  O 10  S   -0.001032  -0.002822   0.027348   0.009224   0.003869
   47  O 10  S    0.006391   0.014208  -0.168649  -0.056860  -0.042389
   48  O 10  X   -0.007491   0.029415  -0.086129  -0.016518   0.019873
   49  O 10  Y   -0.028378  -0.011005   0.222279   0.093895   0.060008
   50  O 10  Z    0.090588  -0.001053   0.064790  -0.060530   0.027088
   51  H 11  S    0.171882  -0.468722  -0.027551   0.263788   0.260491
   52  H 12  S   -0.353652   0.180914  -0.034480  -0.112130  -0.095143
   53  H 13  S    0.187204  -0.294722  -0.154074   0.545585   0.214357
   54  H 14  S   -0.208892  -0.063823   0.149661  -0.401371   0.047885
   55  H 15  S    0.243485  -0.001327  -0.167629   0.511592   0.006881
   56  H 16  S    0.361507  -0.069361  -0.093502  -0.288117  -0.654969
   57  H 17  S    0.253626  -0.383336  -0.321555  -0.442464  -0.132050
   58  H 18  S    0.005302  -0.545586  -0.231443  -0.127485   0.035493
   59  H 19  S   -0.228614  -0.353239  -0.497714   0.082585  -0.220823
   60  H 20  S   -0.339811  -0.075858  -0.274517   0.197718  -0.674239

                     46         47         48         49         50
                    0.6626     0.6796     0.6804     0.7039     0.7279
                     A          A          A          A          A   
    1  C  1  S    0.046374  -0.073281   0.055010   0.067512  -0.124302
    2  C  1  S   -0.248806   0.428647  -0.330357  -0.409836   0.780617
    3  C  1  X   -0.060670   0.758375   0.163227   0.125681  -0.332528
    4  C  1  Y   -0.426723   0.241732  -0.418472  -0.032146  -0.188521
    5  C  1  Z   -0.399961   0.191326   0.203811   0.029773  -0.081460
    6  C  2  S   -0.092516  -0.044346   0.000305  -0.086144   0.097321
    7  C  2  S    0.578608   0.279157  -0.019065   0.506425  -0.629049
    8  C  2  X    0.227487  -0.049476   0.200318  -0.025930  -0.136663
    9  C  2  Y   -0.134728  -0.208980  -0.032578   0.022551   0.294527
   10  C  2  Z    0.162025  -0.101264  -0.122554  -0.003092  -0.001028
   11  C  3  S   -0.002631   0.008585  -0.043589   0.197521   0.041439
   12  C  3  S    0.031925  -0.045664   0.285229  -1.267563  -0.289746
   13  C  3  X   -0.151492   0.032853   0.152785   0.252610   0.140185
   14  C  3  Y    0.038942   0.068565   0.095486  -0.354608  -0.254498
   15  C  3  Z   -0.013483   0.066665  -0.244160   0.080696   0.029468
   16  C  4  S    0.000066  -0.011667  -0.066513  -0.011944  -0.002675
   17  C  4  S   -0.002887   0.070174   0.398191   0.072370   0.013394
   18  C  4  X   -0.048674   0.117857  -0.009453  -0.024152   0.056934
   19  C  4  Y    0.086871   0.131654  -0.073604  -0.007868  -0.102505
   20  C  4  Z    0.230892   0.171347  -0.112057  -0.015733  -0.089720
   21  C  5  S    0.000565  -0.004860   0.155558   0.026380   0.033707
   22  C  5  S    0.021687   0.045460  -0.974886  -0.164286  -0.224717
   23  C  5  X    0.051347  -0.251038  -0.007752   0.036037  -0.097859
   24  C  5  Y    0.092714  -0.018439   0.285984   0.062681   0.009071
   25  C  5  Z    0.157263   0.086293   0.051923   0.004082  -0.021048
   26  C  6  S   -0.113906   0.040270  -0.104719  -0.009557  -0.091180
   27  C  6  S    0.661090  -0.223461   0.620095   0.051983   0.576988
   28  C  6  X   -0.291856   0.769851  -0.016609  -0.122812   0.473006
   29  C  6  Y    0.193356   0.509094   0.054303  -0.003196  -0.210667
   30  C  6  Z   -0.253320   0.108677   0.371644   0.081167  -0.061225
   31  C  7  S    0.137870   0.052992  -0.015304  -0.015542   0.065359
   32  C  7  S   -0.861829  -0.320621   0.112484   0.105296  -0.428585
   33  C  7  X    0.033221  -0.200317  -0.016236   0.031527  -0.101993
   34  C  7  Y    0.288626   0.100227   0.092104   0.008787   0.008319
   35  C  7  Z    0.112553  -0.095468  -0.088304   0.001407  -0.006281
   36  C  8  S   -0.063698  -0.041817   0.018304   0.011463  -0.031295
   37  C  8  S    0.375030   0.253874  -0.115674  -0.067672   0.196875
   38  C  8  X   -0.081369   0.115399   0.071004   0.008689   0.026962
   39  C  8  Y   -0.058757   0.104973   0.138919   0.045785  -0.150901
   40  C  8  Z    0.087450   0.006746  -0.188089  -0.047900   0.079736
   41  C  9  S    0.014947   0.004674   0.002735  -0.003953   0.028985
   42  C  9  S   -0.085161  -0.023084  -0.013972   0.028698  -0.180899
   43  C  9  X   -0.050310  -0.141178   0.030984   0.018880   0.024640
   44  C  9  Y    0.012903  -0.005645   0.072629   0.043932  -0.082808
   45  C  9  Z    0.258995   0.074109  -0.282435  -0.059862   0.068918
   46  O 10  S    0.001168   0.004006  -0.000273   0.003390  -0.015626
   47  O 10  S   -0.010766  -0.029958   0.000837  -0.023255   0.107636
   48  O 10  X   -0.001122   0.031234  -0.011205  -0.021297   0.060916
   49  O 10  Y    0.027292   0.061096  -0.018337   0.017162  -0.112184
   50  O 10  Z   -0.077257  -0.011515   0.089317   0.023340  -0.042278
   51  H 11  S   -0.207001  -0.127573  -0.294974   0.135775  -0.415373
   52  H 12  S   -0.159691   0.062781   0.478245   0.219262  -0.452107
   53  H 13  S   -0.445636  -0.201972   0.108962  -0.279830   0.449802
   54  H 14  S   -0.009010   0.023972  -0.406037   0.853999   0.298927
   55  H 15  S   -0.112388   0.005883   0.107377   0.816583   0.238882
   56  H 16  S   -0.250851  -0.222531  -0.100770  -0.025860   0.101690
   57  H 17  S   -0.045848  -0.050141   0.639106   0.113755   0.143702
   58  H 18  S   -0.004158  -0.127053  -0.233307   0.048168  -0.671157
   59  H 19  S    0.617974   0.181268  -0.098761  -0.064476   0.258418
   60  H 20  S   -0.107254  -0.219557  -0.171813  -0.028444   0.042899

                     51         52         53         54         55
                    0.7444     0.7805     0.7849     0.8861     0.8953
                     A          A          A          A          A   
    1  C  1  S   -0.062302  -0.129174   0.020960   0.012678  -0.022772
    2  C  1  S    0.407826   0.831783  -0.123258  -0.085766   0.147446
    3  C  1  X    0.067384   0.137052   0.028116  -0.006941   0.024496
    4  C  1  Y    0.099570  -0.510175   0.315802  -0.024300  -0.073276
    5  C  1  Z   -0.617481  -0.208953  -0.456535   0.128077   0.041262
    6  C  2  S   -0.058719   0.025413  -0.071535   0.016493  -0.004238
    7  C  2  S    0.392132  -0.168935   0.480687  -0.117750   0.028178
    8  C  2  X    0.037770   0.011189   0.035097   0.038910  -0.080391
    9  C  2  Y   -0.011248   0.051282  -0.018958  -0.008884  -0.104630
   10  C  2  Z    0.082820   0.010244   0.038642  -0.049129   0.163310
   11  C  3  S    0.013264   0.009132   0.009392  -0.007342   0.000616
   12  C  3  S   -0.085289  -0.064244  -0.061326   0.052722  -0.000364
   13  C  3  X   -0.203749   0.165995  -0.245769   0.005644   0.176472
   14  C  3  Y    0.081637  -0.078590   0.156859  -0.071735   0.037278
   15  C  3  Z    0.065354  -0.125005   0.071817   0.067501  -0.197539
   16  C  4  S   -0.115600   0.053731   0.064015   0.003493  -0.032769
   17  C  4  S    0.752852  -0.360131  -0.432653  -0.029305   0.235156
   18  C  4  X   -0.034946   0.011655   0.092077  -0.009469  -0.027785
   19  C  4  Y    0.101055   0.025620  -0.336440   0.024744  -0.133592
   20  C  4  Z    0.076867   0.083498  -0.108477   0.689849  -0.104191
   21  C  5  S    0.060234  -0.017610   0.072175   0.005888   0.022303
   22  C  5  S   -0.381231   0.117261  -0.488267  -0.036807  -0.155272
   23  C  5  X    0.012624  -0.013874  -0.061549  -0.059396   0.088187
   24  C  5  Y   -0.139344   0.204270   0.269174   0.342783  -0.335381
   25  C  5  Z   -0.016582   0.013808   0.053070  -0.612905   0.291506
   26  C  6  S    0.010538   0.092837  -0.030808   0.001522  -0.016683
   27  C  6  S   -0.056986  -0.582365   0.198846  -0.010899   0.103329
   28  C  6  X    0.058100  -0.347344   0.106253   0.044035  -0.123609
   29  C  6  Y   -0.016303   0.266372  -0.226167   0.015206   0.430717
   30  C  6  Z    0.259595   0.237397   0.500831  -0.303160   0.041996
   31  C  7  S   -0.066812  -0.067504  -0.044228  -0.009065   0.021504
   32  C  7  S    0.423104   0.452107   0.300809   0.058418  -0.151907
   33  C  7  X   -0.082276   0.000037   0.031633   0.200467   0.242277
   34  C  7  Y    0.127918  -0.075671  -0.306695  -0.008921  -0.197660
   35  C  7  Z    0.002052  -0.004527  -0.101810  -0.538804  -0.530186
   36  C  8  S    0.116614  -0.012638  -0.077449   0.003108  -0.035761
   37  C  8  S   -0.762911   0.086146   0.520316  -0.017356   0.257244
   38  C  8  X    0.037140  -0.025656  -0.079753  -0.160579  -0.092705
   39  C  8  Y   -0.102707   0.316974   0.225495  -0.279696  -0.243991
   40  C  8  Z    0.084019  -0.009222   0.100695   0.549154   0.172931
   41  C  9  S    0.004984  -0.030718   0.015411  -0.013702   0.110891
   42  C  9  S   -0.031176   0.196743  -0.099124   0.090011  -0.731000
   43  C  9  X    0.067543  -0.122347  -0.056725  -0.098285   0.325515
   44  C  9  Y    0.119700   0.052246  -0.171124  -0.025468  -0.591873
   45  C  9  Z   -0.530779   0.259925   0.549050   0.415041  -0.025657
   46  O 10  S   -0.001389   0.020987  -0.008844   0.010157  -0.084408
   47  O 10  S    0.009264  -0.147408   0.062039  -0.073357   0.611248
   48  O 10  X   -0.013492  -0.057556   0.053098  -0.019413   0.290957
   49  O 10  Y   -0.044448   0.174267  -0.031566   0.098107  -0.607598
   50  O 10  Z    0.153901  -0.039604  -0.158692  -0.094098  -0.114095
   51  H 11  S   -0.029280  -0.795063   0.363505   0.002011  -0.113323
   52  H 12  S   -0.701709  -0.403194  -0.362733   0.130779   0.002137
   53  H 13  S   -0.222443   0.121736  -0.243300   0.067586  -0.161271
   54  H 14  S    0.081815  -0.015697   0.022320   0.050615  -0.143552
   55  H 15  S   -0.145654   0.214860  -0.191438  -0.041450   0.199071
   56  H 16  S   -0.449429   0.082505   0.369484  -0.506984   0.024236
   57  H 17  S    0.119637   0.042422   0.330375   0.545761  -0.277649
   58  H 18  S   -0.009385   0.647272  -0.266457  -0.023906   0.239363
   59  H 19  S   -0.124575  -0.213058  -0.262539  -0.456133  -0.408280
   60  H 20  S    0.468047  -0.228140  -0.287768   0.478452   0.145598

                     56         57         58         59         60
                    0.9333     0.9458     1.0466     1.0752     1.1299
                     A          A          A          A          A   
    1  C  1  S    0.001593   0.051651   0.017019  -0.001773  -0.004784
    2  C  1  S   -0.012782  -0.335507  -0.114556   0.010915   0.030959
    3  C  1  X    0.135390   0.323833   0.030225  -0.018894   0.060926
    4  C  1  Y   -0.042274  -0.250728   0.208541  -0.075876  -0.045301
    5  C  1  Z   -0.042869  -0.079998  -0.237209   0.133264   0.004403
    6  C  2  S    0.005318   0.012662   0.102506  -0.023496  -0.006085
    7  C  2  S   -0.044893  -0.112075  -0.837894   0.194227   0.045240
    8  C  2  X    0.141053   0.469601   0.690372  -0.184673  -0.004150
    9  C  2  Y    0.076625   0.252958  -0.912037   0.242979   0.036511
   10  C  2  Z   -0.215573  -0.684413   0.158520  -0.035625  -0.029098
   11  C  3  S   -0.001647  -0.004579  -0.109742   0.028091   0.003651
   12  C  3  S    0.011047   0.029581   0.885619  -0.228622  -0.029833
   13  C  3  X   -0.147894  -0.454052   0.640233  -0.158287  -0.031043
   14  C  3  Y   -0.090607  -0.270503  -0.877098   0.219331   0.027830
   15  C  3  Z    0.228332   0.689590   0.156866  -0.043330   0.002231
   16  C  4  S   -0.061460   0.013362  -0.016493  -0.055851  -0.062092
   17  C  4  S    0.475492  -0.106382   0.139062   0.477562   0.502116
   18  C  4  X    0.046638  -0.029649   0.061162   0.180790   0.140467
   19  C  4  Y   -0.514545   0.145447  -0.240093  -0.802571  -0.512966
   20  C  4  Z    0.425634  -0.184316  -0.055902  -0.054180  -0.481359
   21  C  5  S    0.054939  -0.010403   0.021252   0.058626   0.065034
   22  C  5  S   -0.426940   0.090692  -0.177502  -0.498107  -0.529040
   23  C  5  X    0.121347  -0.002901   0.024927   0.134068   0.108998
   24  C  5  Y   -0.367800   0.037792  -0.215712  -0.755878  -0.570820
   25  C  5  Z   -0.515849   0.307487  -0.040331  -0.266175   0.123556
   26  C  6  S    0.080656  -0.029323  -0.001745  -0.001286  -0.010780
   27  C  6  S   -0.530176   0.188567   0.009820   0.008771   0.066404
   28  C  6  X   -0.143817  -0.078962   0.019133   0.041895  -0.071796
   29  C  6  Y   -0.072405   0.186494  -0.008998   0.089435   0.286209
   30  C  6  Z   -0.010938   0.072651  -0.012370  -0.350824   0.063075
   31  C  7  S    0.050307  -0.014646  -0.017975  -0.057794   0.065499
   32  C  7  S   -0.394704   0.119367   0.149117   0.494950  -0.535847
   33  C  7  X   -0.014216   0.054287  -0.025875  -0.094891   0.172100
   34  C  7  Y   -0.563479   0.157885   0.186486   0.811183  -0.483099
   35  C  7  Z    0.345195  -0.189949   0.037800   0.055208  -0.323069
   36  C  8  S   -0.060510   0.014749   0.013272   0.056085  -0.062886
   37  C  8  S    0.469647  -0.114499  -0.112838  -0.480607   0.510277
   38  C  8  X    0.196905  -0.070344  -0.054194  -0.210591   0.038703
   39  C  8  Y   -0.251019   0.086671   0.196454   0.758804  -0.692806
   40  C  8  Z   -0.591963   0.170718   0.066642   0.252135   0.224699
   41  C  9  S   -0.034310   0.036997  -0.001563   0.000190  -0.029902
   42  C  9  S    0.232848  -0.245934   0.012017  -0.001699   0.209964
   43  C  9  X    0.220507   0.029363  -0.029685  -0.051489  -0.326258
   44  C  9  Y   -0.366591  -0.043976   0.020071  -0.088170   0.784858
   45  C  9  Z   -0.054658  -0.020203   0.102968   0.356459   0.131897
   46  O 10  S   -0.023313  -0.014365   0.003647  -0.000385   0.065801
   47  O 10  S    0.177508   0.103417  -0.027764   0.003070  -0.508363
   48  O 10  X    0.072351   0.050577  -0.011820   0.010489  -0.243319
   49  O 10  Y   -0.166026  -0.105049   0.028481   0.011148   0.451299
   50  O 10  Z   -0.027075  -0.012815  -0.012161  -0.060219   0.068469
   51  H 11  S   -0.056603  -0.109605   0.166714  -0.053307  -0.043595
   52  H 12  S   -0.015695   0.138621  -0.139565   0.089707   0.006554
   53  H 13  S    0.189272   0.598074  -0.121022   0.036537   0.016173
   54  H 14  S    0.183860   0.549813   0.116825  -0.029056  -0.002073
   55  H 15  S   -0.186903  -0.562132   0.081480  -0.015380  -0.010264
   56  H 16  S   -0.338993   0.129786   0.047315   0.069027   0.241094
   57  H 17  S    0.236026  -0.183408  -0.022588  -0.055787  -0.141132
   58  H 18  S    0.210331   0.063513  -0.020178   0.005248   0.117786
   59  H 19  S    0.246015  -0.150418   0.020132   0.051225  -0.142080
   60  H 20  S   -0.360755   0.091010  -0.021960  -0.069269   0.242867

 THE NUCLEAR REPULSION AT THE IRC POINT IS      494.9179015949

 * * * IRC RESTART INFORMATION * * *
 COORDINATES FOR $DATA AND ENTIRE $IRC GROUP FOLLOW

 COORDINATES OF SYMMETRY UNIQUE ATOMS (ANGS)
   ATOM   CHARGE       X              Y              Z
 ------------------------------------------------------------
 C           6.0   4.1254076161  -1.8164437144  -0.8348344874
 C           6.0   2.8984097771  -1.4849691251   0.0151702749
 C           6.0   2.1148607571  -0.4498511543  -0.1516475005
 C           6.0   5.0729582114   0.7982033757   1.2562591117
 C           6.0   5.3273169222  -0.4630096534   0.9903139746
 C           6.0   5.4255307857  -1.0097799020  -0.4312386758
 C           6.0   5.6804866137   0.1086429545  -1.4372731365
 C           6.0   5.4328007167   1.3736053186  -1.1893780110
 C           6.0   4.8963488299   1.8176565041   0.1522633702
 O           8.0   4.3557044661   2.9041624720   0.3240132492
 H           1.0   4.3359148929  -2.8793368931  -0.7404036780
 H           1.0   3.9113745240  -1.6233971555  -1.8842069532
 H           1.0   2.7069589759  -2.1715828235   0.8324122510
 H           1.0   2.2638134362   0.2705562045  -0.9445630499
 H           1.0   1.2729389259  -0.2634127954   0.5006569773
 H           1.0   4.9635038554   1.1573036701   2.2717487082
 H           1.0   5.4361462582  -1.1892458864   1.7885302267
 H           1.0   6.2642162953  -1.7064758309  -0.4797213554
 H           1.0   6.0472362523  -0.2082076412  -2.4077729859
 H           1.0   5.5832343792   2.1442488198  -1.9346571694
 $IRC   PACE=GS2        STRIDE= 0.10000   NPOINT=??
        STOTAL=  9.998463   NEXTPT= 101
        NPRT= 0   NPUN= 0   SADDLE=.FALSE.
        GA(   1)=-2.898717967E-04, 8.050488021E-04,-8.960169539E-04
        GA(   4)=-1.806308204E-04,-1.999561295E-04,-2.772500704E-04
        GA(   7)= 9.416048861E-04, 9.906045482E-04, 2.329091764E-03
        GA(  10)=-5.384897350E-04,-1.281829906E-04,-1.587052305E-04
        GA(  13)=-3.337999194E-04,-1.538699241E-04,-2.198045306E-05
        GA(  16)= 4.261401124E-05,-9.251884802E-05,-2.041113078E-06
        GA(  19)= 1.231118557E-03,-1.065163916E-04, 2.785780114E-04
        GA(  22)= 9.565227580E-04,-1.306894086E-04, 9.403255653E-05
        GA(  25)=-3.709219475E-04,-3.110788532E-04,-3.624737907E-04
        GA(  28)=-1.683416082E-03,-9.267640506E-04,-1.185781428E-03
        GA(  31)=-4.828115593E-05, 5.146133817E-05,-2.200819091E-04
        GA(  34)=-4.268191635E-05, 2.102801390E-04,-7.454312974E-05
        GA(  37)=-8.715664419E-05,-1.933707411E-04,-1.728675760E-04
        GA(  40)= 1.506648608E-04, 2.502480553E-04, 3.637226946E-04
        GA(  43)= 8.267727214E-05, 9.180121003E-06, 2.223742067E-04
        GA(  46)=-7.508351734E-05,-2.273299582E-06,-1.058383732E-05
        GA(  49)=-4.438124581E-05,-5.251103123E-06, 2.908107575E-08
        GA(  52)=-3.640703962E-05,-5.025280946E-05, 3.258560169E-05
        GA(  55)= 1.875101250E-04,-1.259868883E-05, 3.695350547E-05
        GA(  58)= 1.384094275E-04,-3.499771899E-06, 2.495806972E-05
 $END   
 A GS2 RESTART ALSO REQUIRES THE UPDATED $HESS GROUP FROM THE PUNCH FILE
 ......DONE WITH THIS PORTION OF THE IRC......
 STEP CPU TIME =     0.01 TOTAL CPU TIME =        219.7 (      3.7 MIN)
 TOTAL WALL CLOCK TIME=        226.2 SECONDS, CPU UTILIZATION IS    97.14%
               580000  WORDS OF DYNAMIC MEMORY USED
 EXECUTION OF GAMESS TERMINATED NORMALLY Mon Nov 15 03:39:06 2021
 DDI: 263640 bytes (0.3 MB / 0 MWords) used by master data server.

 ----------------------------------------
 CPU timing information for all processes
 ========================================
 0: 202.846 + 16.897 = 219.743
 ----------------------------------------
 ddikick.x: exited gracefully.
----- accounting info -----
Files used on the master node chemcompute-node-0.novalocal were:
-rw-r--r--. 1 chemcomp chemcomp    60517 Nov 15 03:35 /scratch/306634/342648.F05
-rw-rw-r--. 1 chemcomp chemcomp 17281536 Nov 15 03:39 /scratch/306634/342648.F08
-rw-rw-r--. 1 chemcomp chemcomp 52428800 Nov 15 03:39 /scratch/306634/342648.F10
Mon Nov 15 03:39:10 UTC 2021
0.120u 0.114s 3:49.92 0.1%	0+0k 120+328io 0pf+0w
Finishing Up...
Looking for IR data...
Looking for Raman data...
vibramans not found
Looking for thermodynamics data...
Looking for UV-Vis data...
306634
