----- GAMESS execution script 'rungms' -----
This job is running on host chemcompute-node-0.novalocal
under operating system Linux at Mon Nov 15 03:05:15 UTC 2021
SLURM has assigned the following compute nodes to this run:
chemcompute-node-0
Available scratch disk space (Kbyte units) at beginning of the job is
Filesystem     1K-blocks     Used Available Use% Mounted on
/dev/sda1       62903276 17605808  45297468  28% /
GAMESS temporary binary files will be written to /scratch/306627
GAMESS supplementary output files will be written to /data/slurm/342641
Copying input file 342641.inp to your run's scratch directory...
The generated host list is
chemcompute-node-0.novalocal

 Distributed Data Interface kickoff program.
 Initiating 1 compute processes on 1 nodes to run the following command:
 /data/gamess-2019R1-ddi/gamess.00.x 342641 

          ******************************************************
          *         GAMESS VERSION = 30 JUN 2019 (R1)          *
          *             FROM IOWA STATE UNIVERSITY             *
          * M.W.SCHMIDT, K.K.BALDRIDGE, J.A.BOATZ, S.T.ELBERT, *
          *   M.S.GORDON, J.H.JENSEN, S.KOSEKI, N.MATSUNAGA,   *
          *          K.A.NGUYEN, S.J.SU, T.L.WINDUS,           *
          *       TOGETHER WITH M.DUPUIS, J.A.MONTGOMERY       *
          *         J.COMPUT.CHEM.  14, 1347-1363(1993)        *
          **************** 64 BIT LINUX VERSION ****************

  SINCE 1993, STUDENTS AND POSTDOCS WORKING AT IOWA STATE UNIVERSITY
  AND ALSO IN THEIR VARIOUS JOBS AFTER LEAVING ISU HAVE MADE IMPORTANT
  CONTRIBUTIONS TO THE CODE:
     IVANA ADAMOVIC, CHRISTINE AIKENS, YURI ALEXEEV, POOJA ARORA,
     ANDREY ASADCHEV, ROB BELL, PRADIPTA BANDYOPADHYAY, JONATHAN BENTZ,
     COLLEEN BERTONI, BRETT BODE, KURT BRORSEN, CALEB CARLIN, GALINA CHABAN,
     WEI CHEN, CHEOL HO CHOI, PAUL DAY, ALBERT DEFUSCO, NUWAN DESILVA,
     TIM DUDLEY, DMITRI FEDOROV, ALEX FINDLATER, GRAHAM FLETCHER, 
     MARK FREITAG, KURT GLAESEMANN, ANASTASIA GUNINA,
     DAN KEMP, GRANT MERRILL, NORIYUKI MINEZAWA, JONATHAN MULLIN,
     TAKESHI NAGATA, SEAN NEDD, HEATHER NETZLOFF, BOSILJKA NJEGIC, RYAN OLSON,
     MIKE PAK, BUU PHAM,
     SPENCER PRUITT, LUKE ROSKOP, JIM SHOEMAKER, LYUDMILA SLIPCHENKO,
     TONY SMITH, SAROM SOK LEANG, JIE SONG, TETSUYA TAKETSUGU, SIMON WEBB,
     PENG XU, SOOHAENG YOO, FEDERICO ZAHARIEV

  ADDITIONAL CODE HAS BEEN PROVIDED BY COLLABORATORS IN OTHER GROUPS:
     IOWA STATE UNIVERSITY:
          JOE IVANIC, AARON WEST, LAIMUTIS BYTAUTAS, KLAUS RUEDENBERG
     UNIVERSITY OF TOKYO: KIMIHIKO HIRAO, TAKAHITO NAKAJIMA,
          TAKAO TSUNEDA, MUNEAKI KAMIYA, SUSUMU YANAGISAWA,
          KIYOSHI YAGI, MAHITO CHIBA, SEIKEN TOKURA, NAOAKI KAWAKAMI
     UNIVERSITY OF AARHUS: FRANK JENSEN
     UNIVERSITY OF IOWA: VISVALDAS KAIRYS, HUI LI
     NATIONAL INST. OF STANDARDS AND TECHNOLOGY: WALT STEVENS, DAVID GARMER
     UNIVERSITY OF PISA: BENEDETTA MENNUCCI, JACOPO TOMASI
     UNIVERSITY OF MEMPHIS: HENRY KURTZ, PRAKASHAN KORAMBATH
     UNIVERSITY OF ALBERTA: TOBY ZENG, MARIUSZ KLOBUKOWSKI
     UNIVERSITY OF NEW ENGLAND: MARK SPACKMAN
     MIE UNIVERSITY: HIROAKI UMEDA
     NAT. INST. OF ADVANCED INDUSTRIAL SCIENCE AND TECHNOLOGY: KAZUO KITAURA
     MICHIGAN STATE UNIVERSITY:
          KAROL KOWALSKI, MARTA WLOCH, JEFFREY GOUR, JESSE LUTZ,
          WEI LI, JUN SHEN, J. EMILIANO DEUSTUA, PIOTR PIECUCH
     UNIVERSITY OF MINNESOTA:
          YINAN SHU
     UNIVERSITY OF SILESIA: MONIKA MUSIAL, STANISLAW KUCHARSKI
     FACULTES UNIVERSITAIRES NOTRE-DAME DE LA PAIX:
          OLIVIER QUINET, BENOIT CHAMPAGNE
     UNIVERSITY OF CALIFORNIA - SANTA BARBARA: BERNARD KIRTMAN
     INSTITUTE FOR MOLECULAR SCIENCE:
          KAZUYA ISHIMURA, MICHIO KATOUDA, AND SHIGERU NAGASE
     UNIVERSITY OF NOTRE DAME: ANNA POMOGAEVA, DAN CHIPMAN
     KYUSHU UNIVERSITY:
          HARUYUKI NAKANO,
          FENG LONG GU, JACEK KORCHOWIEC, MARCIN MAKOWSKI, AND YURIKO AOKI,
          HIROTOSHI MORI AND EISAKU MIYOSHI
     PENNSYLVANIA STATE UNIVERSITY:
          TZVETELIN IORDANOV, CHET SWALINA, JONATHAN SKONE,
          SHARON HAMMES-SCHIFFER
     WASEDA UNIVERSITY:
          MASATO KOBAYASHI, TOMOKO AKAMA, TSUGUKI TOUMA,
          TAKESHI YOSHIKAWA, YASUHIRO IKABATA, JUNJI SEINO,
          YUYA NAKAJIMA, HIROMI NAKAI
     NANJING UNIVERSITY: SHUHUA LI
     UNIVERSITY OF NEBRASKA:
          PEIFENG SU, DEJUN SI, NANDUN THELLAMUREGE, YALI WANG, HUI LI
     UNIVERSITY OF ZURICH: ROBERTO PEVERATI, KIM BALDRIDGE
     N. COPERNICUS UNIVERSITY AND JACKSON STATE UNIVERSITY:
          MARIA BARYSZ
     UNIVERSITY OF COPENHAGEN: Jimmy Kromann, CASPER STEINMANN
     TOKYO INSTITUTE OF TECHNOLOGY: HIROYA NAKATA
     NAGOYA UNIVERSITY: YOSHIO NISHIMOTO, STEPHAN IRLE
     MOSCOW STATE UNIVERSITY: VLADIMIR MIRONOV
     A.N.NESMEYANOV INSTITUTE OF ORGANOELEMENT COMPOUNDS OF RUSSIAN ACADEMY OF SCIENCES:
          IGOR S. GERASIMOV

 EXECUTION OF GAMESS BEGUN Mon Nov 15 03:05:15 2021

            ECHO OF THE FIRST FEW INPUT CARDS -
 INPUT CARD>!File created by the GAMESS Input Deck Generator Plugin for Avogadro            
 INPUT CARD> $BASIS GBASIS=STO NGAUSS=3 $END                                                
 INPUT CARD> $CONTRL SCFTYP=RHF RUNTYP=OPTIMIZE NZVAR=1 mult=1  ICHARG=0 $END               
 INPUT CARD> $STATPT hssend=.t. OPTTOL=0.0005 NSTEP=50 $END                                 
 INPUT CARD> $STATPT HESS=calc ihrep=5 $END                                                 
 INPUT CARD> $FORCE nvib=2 $END                                                             
 INPUT CARD> $ZMAT DLC=.t. auto=.t. nonvdw(1)=1,6,3,4 $END                                  
 INPUT CARD> $ZMAT IFZMAT(1)=1,1,6,1,3,4 fvalue(1)=2.00,2.00 $END                           
 INPUT CARD>                                                                                
 INPUT CARD>                                                                                
 INPUT CARD> $DATA                                                                          
 INPUT CARD>Title                                                                           
 INPUT CARD>C1                                                                              
 INPUT CARD>C     6.0     3.77466    -1.65969    -1.03890                                   
 INPUT CARD>C     6.0     2.86198    -1.69338    -0.01951                                   
 INPUT CARD>C     6.0     2.64586    -0.55228     0.92426                                   
 INPUT CARD>C     6.0     4.21741     0.66903     0.74144                                   
 INPUT CARD>C     6.0     5.22299    -0.42019     0.81549                                   
 INPUT CARD>C     6.0     5.53341    -0.94009    -0.40669                                   
 INPUT CARD>C     6.0     6.12225     0.14328    -1.26168                                   
 INPUT CARD>C     6.0     5.78034     1.44249    -1.12708                                   
 INPUT CARD>C     6.0     4.70323     1.78527    -0.15300                                   
 INPUT CARD>O     8.0     4.45902     2.96486     0.11716                                   
 INPUT CARD>H     1.0     3.84652    -2.57898    -1.63131                                   
 INPUT CARD>H     1.0     3.82663    -0.76247    -1.67643                                   
 INPUT CARD>H     1.0     2.31179    -2.59460     0.23837                                   
 INPUT CARD>H     1.0     1.83179     0.08416     0.67601                                   
 INPUT CARD>H     1.0     2.58366    -0.74433     2.03302                                   
 INPUT CARD>H     1.0     3.77957     1.26358     1.51927                                   
 INPUT CARD>H     1.0     5.16693    -1.06690     1.67340                                   
 INPUT CARD>H     1.0     6.06451    -1.90418    -0.40509                                   
 INPUT CARD>H     1.0     6.95158    -0.16009    -1.89564                                   
 INPUT CARD>H     1.0     6.28998     2.28101    -1.58742                                   
 INPUT CARD> $END                                                                           
    1000000 WORDS OF MEMORY AVAILABLE

     BASIS OPTIONS
     -------------
     GBASIS=STO          IGAUSS=       3      POLAR=NONE    
     NDFUNC=       0     NFFUNC=       0     DIFFSP=       F
     NPFUNC=       0      DIFFS=       F     BASNAM=        


     RUN TITLE
     ---------
 Title                                                                           

 THE POINT GROUP OF THE MOLECULE IS C1      
 THE ORDER OF THE PRINCIPAL AXIS IS     0

 ATOM      ATOMIC                      COORDINATES (BOHR)
           CHARGE         X                   Y                   Z
 C           6.0     7.1330730968       -3.1363593246       -1.9632363286
 C           6.0     5.4083579823       -3.2000241931       -0.0368685540
 C           6.0     4.9999504019       -1.0436578685        1.7465981414
 C           6.0     7.9697492779        1.2642833776        1.4011184363
 C           6.0     9.8700199366       -0.7940439628        1.5410526457
 C           6.0    10.4566286777       -1.7765125038       -0.7685326619
 C           6.0    11.5693749283        0.2707599395       -2.3842294842
 C           6.0    10.9232587159        2.7259108400       -2.1298723662
 C           6.0     8.8878159572        3.3736711141       -0.2891280761
 O           8.0     8.4263259738        5.6027729920        0.2214002967
 H           1.0     7.2688688063       -4.8735655278       -3.0827289010
 H           1.0     7.2312821564       -1.4408593739       -3.1679933376
 H           1.0     4.3686496412       -4.9030830477        0.4504539837
 H           1.0     3.4615811670        0.1590393391        1.2774736650
 H           1.0     4.8824094454       -1.4065797444        3.8418507276
 H           1.0     7.1423516514        2.3878199636        2.8710040014
 H           1.0     9.7640818977       -2.0161486563        3.1622674679
 H           1.0    11.4602621498       -3.5983784313       -0.7655091004
 H           1.0    13.1365813817       -0.3025262334       -3.5822401714
 H           1.0    11.8863386683        4.3104838753       -2.9997888274

          INTERNUCLEAR DISTANCES (ANGS.)
          ------------------------------

                1 C          2 C          3 C          4 C          5 C     

   1 C       0.0000000    1.3686766 *  2.5208220 *  2.9645531 *  2.6594703 *
   2 C       1.3686766 *  0.0000000    1.4965022 *  2.8279350 *  2.8093782 *
   3 C       2.5208220 *  1.4965022 *  0.0000000    1.9986972 *  2.5828042 *
   4 C       2.9645531 *  2.8279350 *  1.9986972 *  0.0000000    1.4842758 *
   5 C       2.6594703 *  2.8093782 *  2.5828042 *  1.4842758 *  0.0000000  
   6 C       2.0026770 *  2.8024797 *  3.2030875    2.3747264 *  1.3639577 *
   7 C       2.9684189 *  3.9427994    4.1650240    2.8137730 *  2.3325527 *
   8 C       3.6951385    4.4246149    4.2440627    2.5558477 *  2.7484166 *
   9 C       3.6762495    3.9381502    3.2950570    1.5106408 *  2.4641788 *
  10 O       4.8157332    4.9262983    4.0384692    2.3914298 *  3.5397568  
  11 H       1.0959962 *  2.0860263 *  3.4756345    4.0394394    3.5414509  
  12 H       1.1018843 *  2.1313205 *  2.8639110 *  2.8368991 *  2.8769154 *
  13 H       2.1553338 *  1.0869262 *  2.1801649 *  3.8125776    3.6791591  
  14 H       3.1235673    2.1690293 *  1.0627295 *  2.4571400 *  3.4313352  
  15 H       3.4195113    2.2783848 *  1.1269875 *  2.5169236 *  2.9246382 *
  16 H       3.8845547    3.4573730    2.2218647 *  1.0724799 *  2.3267679 *
  17 H       3.1058633    2.9276639 *  2.6798952 *  2.1871421 *  1.0758188 *
  18 H       2.3884940 *  3.2325388    3.9092164    3.3686376    2.0976648 *
  19 H       3.6160233    4.7534903    5.1618673    3.8880993    3.2258179  
  20 H       4.7071037    5.4777095    5.2550622    3.5096460    3.7694729  

                6 C          7 C          8 C          9 C         10 O     

   1 C       2.0026770 *  2.9684189 *  3.6951385    3.6762495    4.8157332  
   2 C       2.8024797 *  3.9427994    4.4246149    3.9381502    4.9262983  
   3 C       3.2030875    4.1650240    4.2440627    3.2950570    4.0384692  
   4 C       2.3747264 *  2.8137730 *  2.5558477 *  1.5106408 *  2.3914298 *
   5 C       1.3639577 *  2.3325527 *  2.7484166 *  2.4641788 *  3.5397568  
   6 C       0.0000000    1.5004769 *  2.5013244 *  2.8602700 *  4.0837932  
   7 C       1.5004769 *  0.0000000    1.3501727 *  2.4369900 *  3.5537090  
   8 C       2.5013244 *  1.3501727 *  0.0000000    1.4921447 *  2.3688880 *
   9 C       2.8602700 *  2.4369900 *  1.4921447 *  0.0000000    1.2345272 *
  10 O       4.0837932    3.5537090    2.3688880 *  1.2345272 *  0.0000000  
  11 H       2.6516509 *  3.5673902    4.4906713    4.6867932    5.8452088  
  12 H       2.1346865 *  2.5024532 *  2.9967677 *  3.0951972    4.1844798  
  13 H       3.6786331    4.9260270    5.4948511    5.0055386    5.9609466  
  14 H       3.9904032    4.7080978    4.5483229    3.4389243    3.9386652  
  15 H       3.8329534    4.9157419    4.9987175    3.9585523    4.5766347  
  16 H       3.4119552    3.8048528    3.3223874    1.9803523 *  2.3069283 *
  17 H       2.1159307 *  3.3153984    3.8099866    3.4184248    4.3792817  
  18 H       1.1006995 *  2.2201740 *  3.4354363    3.9406438    5.1534351  
  19 H       2.1992222 *  1.0870726 *  2.1285559 *  3.4462004    4.4754365  
  20 H       3.5131192    2.1689005 *  1.0838642 *  2.1956991 *  2.5933874 *

               11 H         12 H         13 H         14 H         15 H     

   1 C       1.0959962 *  1.1018843 *  2.1553338 *  3.1235673    3.4195113  
   2 C       2.0860263 *  2.1313205 *  1.0869262 *  2.1690293 *  2.2783848 *
   3 C       3.4756345    2.8639110 *  2.1801649 *  1.0627295 *  1.1269875 *
   4 C       4.0394394    2.8368991 *  3.8125776    2.4571400 *  2.5169236 *
   5 C       3.5414509    2.8769154 *  3.6791591    3.4313352    2.9246382 *
   6 C       2.6516509 *  2.1346865 *  3.6786331    3.9904032    3.8329534  
   7 C       3.5673902    2.5024532 *  4.9260270    4.7080978    4.9157419  
   8 C       4.4906713    2.9967677 *  5.4948511    4.5483229    4.9987175  
   9 C       4.6867932    3.0951972    5.0055386    3.4389243    3.9585523  
  10 O       5.8452088    4.1844798    5.9609466    3.9386652    4.5766347  
  11 H       0.0000000    1.8171791 *  2.4189550 *  4.0589626    4.2881313  
  12 H       1.8171791 *  0.0000000    3.0525235    3.1984595    3.9122018  
  13 H       2.4189550 *  3.0525235    0.0000000    2.7563897 *  2.5919454 *
  14 H       4.0589626    3.1984595    2.7563897 *  0.0000000    1.7587440 *
  15 H       4.2881313    3.9122018    2.5919454 *  1.7587440 *  0.0000000  
  16 H       4.9694974    3.7841236    4.3221101    2.4281610 *  2.3928732 *
  17 H       3.8666493    3.6208345    3.5418925    3.6664540    2.6280529 *
  18 H       2.6226800 *  2.8156552 *  3.8695772    4.7998116    4.4052184  
  19 H       3.9449077    3.1900199    5.6576045    5.7345699    5.9037641  
  20 H       5.4398461    3.9164763    6.5521811    5.4612016    5.9997563  

               16 H         17 H         18 H         19 H         20 H     

   1 C       3.8845547    3.1058633    2.3884940 *  3.6160233    4.7071037  
   2 C       3.4573730    2.9276639 *  3.2325388    4.7534903    5.4777095  
   3 C       2.2218647 *  2.6798952 *  3.9092164    5.1618673    5.2550622  
   4 C       1.0724799 *  2.1871421 *  3.3686376    3.8880993    3.5096460  
   5 C       2.3267679 *  1.0758188 *  2.0976648 *  3.2258179    3.7694729  
   6 C       3.4119552    2.1159307 *  1.1006995 *  2.1992222 *  3.5131192  
   7 C       3.8048528    3.3153984    2.2201740 *  1.0870726 *  2.1689005 *
   8 C       3.3223874    3.8099866    3.4354363    2.1285559 *  1.0838642 *
   9 C       1.9803523 *  3.4184248    3.9406438    3.4462004    2.1956991 *
  10 O       2.3069283 *  4.3792817    5.1534351    4.4754365    2.5933874 *
  11 H       4.9694974    3.8666493    2.6226800 *  3.9449077    5.4398461  
  12 H       3.7841236    3.6208345    2.8156552 *  3.1900199    3.9164763  
  13 H       4.3221101    3.5418925    3.8695772    5.6576045    6.5521811  
  14 H       2.4281610 *  3.6664540    4.7998116    5.7345699    5.4612016  
  15 H       2.3928732 *  2.6280529 *  4.4052184    5.9037641    5.9997563  
  16 H       0.0000000    2.7165531 *  4.3541722    4.8734068    4.1217527  
  17 H       2.7165531 *  0.0000000    2.4138783 *  4.0921054    4.8065257  
  18 H       4.3541722    2.4138783 *  0.0000000    2.4597728 *  4.3548314  
  19 H       4.8734068    4.0921054    2.4597728 *  0.0000000    2.5478782 *
  20 H       4.1217527    4.8065257    4.3548314    2.5478782 *  0.0000000  

  * ... LESS THAN  3.000


     ATOMIC BASIS SET
     ----------------
 THE CONTRACTED PRIMITIVE FUNCTIONS HAVE BEEN UNNORMALIZED
 THE CONTRACTED BASIS FUNCTIONS ARE NOW NORMALIZED TO UNITY

  SHELL TYPE  PRIMITIVE        EXPONENT          CONTRACTION COEFFICIENT(S)

 C         

      1   S       1            71.6168373    0.154328967295
      1   S       2            13.0450963    0.535328142282
      1   S       3             3.5305122    0.444634542185

      2   L       4             2.9412494   -0.099967229187    0.155916274999
      2   L       5             0.6834831    0.399512826089    0.607683718598
      2   L       6             0.2222899    0.700115468880    0.391957393099

 C         

      3   S       7            71.6168373    0.154328967295
      3   S       8            13.0450963    0.535328142282
      3   S       9             3.5305122    0.444634542185

      4   L      10             2.9412494   -0.099967229187    0.155916274999
      4   L      11             0.6834831    0.399512826089    0.607683718598
      4   L      12             0.2222899    0.700115468880    0.391957393099

 C         

      5   S      13            71.6168373    0.154328967295
      5   S      14            13.0450963    0.535328142282
      5   S      15             3.5305122    0.444634542185

      6   L      16             2.9412494   -0.099967229187    0.155916274999
      6   L      17             0.6834831    0.399512826089    0.607683718598
      6   L      18             0.2222899    0.700115468880    0.391957393099

 C         

      7   S      19            71.6168373    0.154328967295
      7   S      20            13.0450963    0.535328142282
      7   S      21             3.5305122    0.444634542185

      8   L      22             2.9412494   -0.099967229187    0.155916274999
      8   L      23             0.6834831    0.399512826089    0.607683718598
      8   L      24             0.2222899    0.700115468880    0.391957393099

 C         

      9   S      25            71.6168373    0.154328967295
      9   S      26            13.0450963    0.535328142282
      9   S      27             3.5305122    0.444634542185

     10   L      28             2.9412494   -0.099967229187    0.155916274999
     10   L      29             0.6834831    0.399512826089    0.607683718598
     10   L      30             0.2222899    0.700115468880    0.391957393099

 C         

     11   S      31            71.6168373    0.154328967295
     11   S      32            13.0450963    0.535328142282
     11   S      33             3.5305122    0.444634542185

     12   L      34             2.9412494   -0.099967229187    0.155916274999
     12   L      35             0.6834831    0.399512826089    0.607683718598
     12   L      36             0.2222899    0.700115468880    0.391957393099

 C         

     13   S      37            71.6168373    0.154328967295
     13   S      38            13.0450963    0.535328142282
     13   S      39             3.5305122    0.444634542185

     14   L      40             2.9412494   -0.099967229187    0.155916274999
     14   L      41             0.6834831    0.399512826089    0.607683718598
     14   L      42             0.2222899    0.700115468880    0.391957393099

 C         

     15   S      43            71.6168373    0.154328967295
     15   S      44            13.0450963    0.535328142282
     15   S      45             3.5305122    0.444634542185

     16   L      46             2.9412494   -0.099967229187    0.155916274999
     16   L      47             0.6834831    0.399512826089    0.607683718598
     16   L      48             0.2222899    0.700115468880    0.391957393099

 C         

     17   S      49            71.6168373    0.154328967295
     17   S      50            13.0450963    0.535328142282
     17   S      51             3.5305122    0.444634542185

     18   L      52             2.9412494   -0.099967229187    0.155916274999
     18   L      53             0.6834831    0.399512826089    0.607683718598
     18   L      54             0.2222899    0.700115468880    0.391957393099

 O         

     19   S      55           130.7093214    0.154328967295
     19   S      56            23.8088661    0.535328142282
     19   S      57             6.4436083    0.444634542185

     20   L      58             5.0331513   -0.099967229187    0.155916274999
     20   L      59             1.1695961    0.399512826089    0.607683718598
     20   L      60             0.3803890    0.700115468880    0.391957393099

 H         

     21   S      61             3.4252509    0.154328967295
     21   S      62             0.6239137    0.535328142282
     21   S      63             0.1688554    0.444634542185

 H         

     22   S      64             3.4252509    0.154328967295
     22   S      65             0.6239137    0.535328142282
     22   S      66             0.1688554    0.444634542185

 H         

     23   S      67             3.4252509    0.154328967295
     23   S      68             0.6239137    0.535328142282
     23   S      69             0.1688554    0.444634542185

 H         

     24   S      70             3.4252509    0.154328967295
     24   S      71             0.6239137    0.535328142282
     24   S      72             0.1688554    0.444634542185

 H         

     25   S      73             3.4252509    0.154328967295
     25   S      74             0.6239137    0.535328142282
     25   S      75             0.1688554    0.444634542185

 H         

     26   S      76             3.4252509    0.154328967295
     26   S      77             0.6239137    0.535328142282
     26   S      78             0.1688554    0.444634542185

 H         

     27   S      79             3.4252509    0.154328967295
     27   S      80             0.6239137    0.535328142282
     27   S      81             0.1688554    0.444634542185

 H         

     28   S      82             3.4252509    0.154328967295
     28   S      83             0.6239137    0.535328142282
     28   S      84             0.1688554    0.444634542185

 H         

     29   S      85             3.4252509    0.154328967295
     29   S      86             0.6239137    0.535328142282
     29   S      87             0.1688554    0.444634542185

 H         

     30   S      88             3.4252509    0.154328967295
     30   S      89             0.6239137    0.535328142282
     30   S      90             0.1688554    0.444634542185

 TOTAL NUMBER OF BASIS SET SHELLS             =   30
 NUMBER OF CARTESIAN GAUSSIAN BASIS FUNCTIONS =   60
 NUMBER OF ELECTRONS                          =   72
 CHARGE OF MOLECULE                           =    0
 SPIN MULTIPLICITY                            =    1
 NUMBER OF OCCUPIED ORBITALS (ALPHA)          =   36
 NUMBER OF OCCUPIED ORBITALS (BETA )          =   36
 TOTAL NUMBER OF ATOMS                        =   20
 THE NUCLEAR REPULSION ENERGY IS      499.8573936907

     $CONTRL OPTIONS
     ---------------
 SCFTYP=RHF          RUNTYP=OPTIMIZE     EXETYP=RUN     
 MPLEVL=       0     CITYP =NONE         CCTYP =NONE         VBTYP =NONE    
 DFTTYP=NONE         TDDFT =NONE    
 MULT  =       1     ICHARG=       0     NZVAR =       1     COORD =UNIQUE  
 PP    =NONE         RELWFN=NONE         LOCAL =NONE         NUMGRD=       F
 ISPHER=      -1     NOSYM =       0     MAXIT =      30     UNITS =ANGS    
 PLTORB=       F     MOLPLT=       F     AIMPAC=       F     FRIEND=        
 NPRINT=       7     IREST =       0     GEOM  =INPUT   
 NORMF =       0     NORMP =       0     ITOL  =      20     ICUT  =       9
 INTTYP=BEST         GRDTYP=BEST         QMTTOL= 1.0E-06

     $SYSTEM OPTIONS
     ---------------
  REPLICATED MEMORY=     1000000 WORDS (ON EVERY NODE).
 DISTRIBUTED MEMDDI=           0 MILLION WORDS IN AGGREGATE,
 MEMDDI DISTRIBUTED OVER   1 PROCESSORS IS           0 WORDS/PROCESSOR.
 TOTAL MEMORY REQUESTED ON EACH PROCESSOR=     1000000 WORDS.
 TIMLIM=      525600.00 MINUTES, OR     365.0 DAYS.
 PARALL= F  BALTYP=  DLB     KDIAG=    0  COREFL= F
 MXSEQ2=     300 MXSEQ3=     150  mem10=         0

          ----------------
          PROPERTIES INPUT
          ----------------

     MOMENTS            FIELD           POTENTIAL          DENSITY
 IEMOM =       1   IEFLD =       0   IEPOT =       0   IEDEN =       0
 WHERE =COMASS     WHERE =NUCLEI     WHERE =NUCLEI     WHERE =NUCLEI  
 OUTPUT=BOTH       OUTPUT=BOTH       OUTPUT=BOTH       OUTPUT=BOTH    
 IEMINT=       0   IEFINT=       0                     IEDINT=       0
                                                       MORB  =       0
          EXTRAPOLATION IN EFFECT
          SOSCF IN EFFECT
 ORBITAL PRINTING OPTION: NPREO=     1    60     2     1

     -------------------------------
     INTEGRAL TRANSFORMATION OPTIONS
     -------------------------------
     NWORD  =            0
     CUTOFF = 1.0E-09     MPTRAN =       0
     DIRTRF =       F     AOINTS =DUP     

          ----------------------
          INTEGRAL INPUT OPTIONS
          ----------------------
 NOPK  =       1 NORDER=       0 SCHWRZ=       T


 -----------------------------------------------
  STATISTICS ON AUTOMATIC COORDINATE GENERATION 
 -----------------------------------------------
  NUMBER OF USER SPECIFIED BONDS                             2
  NUMBER OF BONDS                                           21
  NUMBER OF ANGLES                                          39
  NUMBER OF TORSIONS                                        62
  NUMBER OF EXTRA COORD.                                     0
  NUMBER OF EXTRA COORD. FOR CONSTRAINTS                     0
  NUMBER OF CONSTRAINED COORD.                               2

  TOTAL NUMBER OF PRIMITIVES                               122
 -----------------------------------------------

   --- ENCODED Z MATRIX ---
 COORD  TYPE   I   J   K   L   M   N
    1      1    1   6
    2      1    3   4
    3      1    1   2
    4      1    1  12
    5      1    1  11
    6      1    2  13
    7      1    2   3
    8      1    3  14
    9      1    3  15
   10      1    4   9
   11      1    4   5
   12      1    4  16
   13      1    5   6
   14      1    5  17
   15      1    6   7
   16      1    6  18
   17      1    7   8
   18      1    7  19
   19      1    8  20
   20      1    8   9
   21      1    9  10
   22      2    1   2  13
   23      2    1   6   7
   24      2    1   6   5
   25      2    1   6  18
   26      2    1   2   3
   27      2    2   1  12
   28      2    2   1  11
   29      2    2   3  15
   30      2    2   3   4
   31      2    2   1   6
   32      2    2   3  14
   33      2    3   2  13
   34      2    3   4  16
   35      2    3   4   5
   36      2    3   4   9
   37      2    4   5  17
   38      2    4   5   6
   39      2    4   9  10
   40      2    4   9   8
   41      2    4   3  15
   42      2    4   3  14
   43      2    5   6   7
   44      2    5   4  16
   45      2    5   4   9
   46      2    5   6  18
   47      2    6   5  17
   48      2    6   1  12
   49      2    6   1  11
   50      2    6   7  19
   51      2    6   7   8
   52      2    7   8  20
   53      2    7   8   9
   54      2    7   6  18
   55      2    8   9  10
   56      2    8   7  19
   57      2    9   4  16
   58      2    9   8  20
   59      2   11   1  12
   60      2   14   3  15
   61      3    1   6   5  17
   62      3    1   6   5   4
   63      3    1   2   3  15
   64      3    1   2   3   4
   65      3    1   2   3  14
   66      3    1   6   7   8
   67      3    1   6   7  19
   68      3    2   3   4   9
   69      3    2   1   6  18
   70      3    2   1   6   5
   71      3    2   1   6   7
   72      3    2   3   4  16
   73      3    2   3   4   5
   74      3    3   4   9  10
   75      3    3   4   9   8
   76      3    3   4   5  17
   77      3    3   4   5   6
   78      3    3   2   1  11
   79      3    3   2   1   6
   80      3    3   2   1  12
   81      3    4   3   2  13
   82      3    4   9   8  20
   83      3    4   9   8   7
   84      3    4   5   6  18
   85      3    4   5   6   7
   86      3    5   4   3  15
   87      3    5   4   3  14
   88      3    5   6   1  11
   89      3    5   6   7  19
   90      3    5   6   7   8
   91      3    5   6   1  12
   92      3    5   4   9   8
   93      3    5   4   9  10
   94      3    6   5   4  16
   95      3    6   5   4   9
   96      3    6   7   8   9
   97      3    6   7   8  20
   98      3    6   1   2  13
   99      3    7   8   9  10
  100      3    7   6   1  11
  101      3    7   6   1  12
  102      3    7   6   5  17
  103      3    8   7   6  18
  104      3    8   9   4  16
  105      3    9   4   5  17
  106      3    9   8   7  19
  107      3    9   4   3  15
  108      3    9   4   3  14
  109      3   10   9   8  20
  110      3   10   9   4  16
  111      3   11   1   2  13
  112      3   11   1   6  18
  113      3   12   1   6  18
  114      3   12   1   2  13
  115      3   13   2   3  15
  116      3   13   2   3  14
  117      3   14   3   4  16
  118      3   15   3   4  16
  119      3   16   4   5  17
  120      3   17   5   6  18
  121      3   18   6   7  19
  122      3   19   7   8  20

          INDEP./SYM. INTERNAL COORDINATES
          --------------------------------
 CRD  1=   1.0000 (  1)
 CRD  2=   1.0000 (  2)
 CRD  3=  -0.1062 (  9) -0.3921 ( 10)  0.2632 ( 15)  0.1980 ( 17) -0.1675 ( 20)
           0.1798 ( 22)  0.1663 ( 30) -0.1054 ( 33) -0.1258 ( 36) -0.2279 ( 39)
          -0.1363 ( 41) -0.1607 ( 42) -0.1039 ( 43)  0.1475 ( 50) -0.1013 ( 51)
           0.1740 ( 52)  0.1071 ( 54)  0.1529 ( 55) -0.2019 ( 58)  0.1535 ( 68)
           0.1190 ( 70)  0.1810 ( 71)  0.1205 ( 73) -0.1037 ( 76) -0.1370 ( 77)
          -0.1141 ( 79)  0.1056 (100)  0.1171 (101)  0.1101 (107)
 CRD  4=  -0.1790 (  3)  0.1343 (  6)  0.1460 (  7)  0.3592 ( 10)  0.1174 ( 15)
          -0.1225 ( 18)  0.1516 ( 21)  0.1592 ( 24) -0.1777 ( 26) -0.1419 ( 29)
           0.2101 ( 30)  0.2023 ( 33)  0.1703 ( 34) -0.1015 ( 36)  0.1159 ( 37)
           0.2860 ( 39) -0.1126 ( 40)  0.1160 ( 45)  0.1921 ( 51) -0.1622 ( 55)
          -0.1240 ( 56)  0.1013 ( 66)  0.1082 ( 67)  0.1282 ( 74)  0.1406 ( 75)
          -0.1526 ( 76) -0.1701 ( 77) -0.1073 ( 79) -0.1176 ( 98)
 CRD  5=  -0.2317 (  3) -0.1373 (  5) -0.4272 (  7) -0.1233 (  8) -0.1131 (  9)
          -0.1012 ( 10) -0.1069 ( 12) -0.1424 ( 13) -0.1013 ( 15) -0.1576 ( 17)
          -0.1621 ( 20)  0.1755 ( 22) -0.2411 ( 26) -0.1235 ( 28)  0.1534 ( 30)
           0.1385 ( 31) -0.1178 ( 32)  0.1302 ( 37) -0.1918 ( 38) -0.1377 ( 41)
          -0.1040 ( 50)  0.1046 ( 51) -0.1235 ( 53)  0.1081 ( 60) -0.1365 ( 66)
           0.1144 ( 78)  0.1111 ( 83) -0.1284 ( 90) -0.1234 ( 91) -0.1331 (101)
 CRD  6=  -0.2790 (  3) -0.1006 (  5) -0.1336 ( 10) -0.1977 ( 15)  0.1819 ( 20)
          -0.1179 ( 25)  0.1207 ( 33) -0.2723 ( 39) -0.2278 ( 49) -0.1740 ( 50)
          -0.1078 ( 52)  0.2722 ( 55)  0.1304 ( 56)  0.1771 ( 58) -0.1048 ( 64)
           0.1601 ( 66)  0.1247 ( 67)  0.1165 ( 68)  0.1368 ( 73)  0.1409 ( 75)
          -0.1108 ( 78) -0.1287 ( 81)  0.1269 ( 89)  0.1623 ( 90)  0.1411 ( 92)
          -0.1180 ( 96) -0.1094 ( 97)  0.1239 (104)
 CRD  7=  -0.1142 (  7) -0.1744 ( 11)  0.1521 ( 15)  0.2103 ( 17)  0.1216 ( 18)
           0.2046 ( 19)  0.4321 ( 20) -0.1943 ( 28) -0.1283 ( 37) -0.2735 ( 39)
           0.1172 ( 41)  0.2552 ( 49) -0.1482 ( 53)  0.2715 ( 55)  0.2241 ( 58)
          -0.1020 ( 76)  0.1003 ( 81)
 CRD  8=  -0.1339 (  3)  0.2387 (  7) -0.1856 ( 10) -0.2188 ( 11)  0.2584 ( 13)
           0.1619 ( 15) -0.2465 ( 17) -0.1173 ( 20) -0.1869 ( 21) -0.2528 ( 22)
           0.1494 ( 29)  0.2850 ( 33) -0.1719 ( 37) -0.1126 ( 38) -0.1351 ( 39)
           0.1437 ( 40) -0.1033 ( 41)  0.2908 ( 47)  0.2310 ( 50) -0.1959 ( 56)
          -0.1285 ( 76) -0.1373 (105)
 CRD  9=   0.2523 (  3)  0.1610 (  5)  0.1316 (  6)  0.2235 (  7)  0.1559 ( 11)
          -0.3176 ( 15) -0.2723 ( 17) -0.1164 ( 18) -0.1361 ( 19)  0.1644 ( 24)
           0.1013 ( 35)  0.1305 ( 37) -0.1059 ( 40) -0.1042 ( 43)  0.1063 ( 48)
          -0.2596 ( 52)  0.1627 ( 55)  0.1907 ( 58)  0.1637 ( 61)  0.1075 ( 62)
          -0.1224 ( 76) -0.1478 ( 77) -0.1077 ( 80)  0.1318 ( 85) -0.1425 ( 89)
          -0.1112 ( 90)  0.1880 (102) -0.1169 (114)
 CRD 10=   0.1970 (  3) -0.1058 (  7)  0.1339 ( 10)  0.1278 ( 14)  0.2221 ( 15)
          -0.2513 ( 17)  0.1505 ( 20)  0.2396 ( 22)  0.1446 ( 28) -0.1846 ( 33)
          -0.1388 ( 49)  0.2681 ( 50) -0.2847 ( 52) -0.3590 ( 56)  0.3392 ( 58)
          -0.1002 ( 61) -0.1182 ( 62)  0.1057 ( 77) -0.1436 ( 85)  0.1011 ( 95)
          -0.1255 (102)
 CRD 11=  -0.1760 (  3) -0.1336 (  6) -0.2790 (  7) -0.1251 ( 10) -0.2597 ( 11)
          -0.1160 ( 13) -0.2164 ( 14) -0.1405 ( 15) -0.2308 ( 17) -0.2567 ( 19)
           0.1058 ( 26) -0.1942 ( 29) -0.1646 ( 33) -0.1418 ( 37)  0.1187 ( 38)
           0.1451 ( 39) -0.1382 ( 40)  0.1912 ( 41)  0.1224 ( 49)  0.2181 ( 50)
          -0.1136 ( 51) -0.1802 ( 52)  0.2039 ( 53) -0.1104 ( 56)  0.1011 ( 74)
          -0.1270 (107) -0.1000 (115)
 CRD 12=  -0.2103 (  3) -0.1141 (  4)  0.1728 (  7)  0.1080 ( 11) -0.1224 ( 13)
          -0.1067 ( 19)  0.1011 ( 20)  0.1008 ( 21) -0.2740 ( 22) -0.1343 ( 24)
          -0.1872 ( 28)  0.1724 ( 31)  0.1708 ( 32)  0.3424 ( 33)  0.1205 ( 38)
          -0.1099 ( 40) -0.2425 ( 42) -0.1665 ( 47) -0.1785 ( 48)  0.1759 ( 50)
          -0.1717 ( 52)  0.1535 ( 53)  0.1107 ( 59)  0.1289 ( 63)  0.1252 ( 64)
          -0.1112 ( 66) -0.1246 ( 67)  0.1247 ( 76)  0.1070 (105)  0.1019 (115)
          -0.1039 (116)
 CRD 13=   0.2323 (  3)  0.2376 (  6)  0.1690 (  7) -0.3356 ( 11) -0.1392 ( 12)
          -0.2053 ( 13) -0.2177 ( 14) -0.1236 ( 15) -0.1486 ( 16) -0.1266 ( 18)
          -0.1203 ( 20) -0.1536 ( 21)  0.1002 ( 22) -0.1849 ( 26)  0.1147 ( 27)
           0.1205 ( 32) -0.1404 ( 37) -0.1873 ( 42) -0.2264 ( 48) -0.1599 ( 50)
           0.1200 ( 52) -0.1577 ( 53)  0.1273 ( 64) -0.1563 ( 78) -0.1484 ( 79)
          -0.1057 ( 98) -0.1136 (111)
 CRD 14=   0.1597 (  3)  0.1903 (  6) -0.1048 (  8)  0.3769 ( 13)  0.1330 ( 16)
           0.1677 ( 18) -0.1495 ( 19)  0.1759 ( 21)  0.1812 ( 22) -0.1667 ( 26)
           0.1520 ( 30)  0.1188 ( 31) -0.1966 ( 37) -0.1404 ( 40)  0.1826 ( 46)
           0.2043 ( 47) -0.1422 ( 48) -0.1234 ( 49) -0.1070 ( 51)  0.2167 ( 53)
           0.1063 ( 56) -0.1311 ( 58)  0.1031 ( 80)  0.1024 ( 81) -0.1461 ( 88)
          -0.1044 ( 91) -0.1081 (103) -0.1076 (105) -0.1068 (106)
 CRD 15=   0.1860 (  9) -0.1003 ( 10)  0.2333 ( 11) -0.1146 ( 12) -0.1433 ( 13)
           0.1462 ( 16) -0.1732 ( 18) -0.1041 ( 20)  0.1441 ( 27) -0.1776 ( 32)
           0.1179 ( 34)  0.1105 ( 36) -0.1335 ( 39)  0.1173 ( 41)  0.1332 ( 42)
          -0.1212 ( 43) -0.1775 ( 48)  0.1021 ( 51)  0.1580 ( 54)  0.1361 ( 55)
          -0.1442 ( 56) -0.1995 ( 57)  0.1483 ( 65) -0.2088 ( 72) -0.1080 ( 73)
           0.2231 ( 80)  0.1186 ( 81)  0.1173 ( 84)  0.1182 ( 94)  0.1405 (101)
           0.1871 (114)  0.1786 (116) -0.1039 (118)  0.1389 (119)  0.1487 (120)
 CRD 16=  -0.1458 (  3) -0.2109 (  4)  0.1075 (  5) -0.3114 (  6)  0.1747 ( 13)
           0.1463 ( 16) -0.2286 ( 18)  0.1206 ( 19)  0.1326 ( 26) -0.1801 ( 27)
           0.1243 ( 28) -0.1065 ( 29)  0.1714 ( 32)  0.2272 ( 41) -0.1846 ( 42)
           0.1464 ( 46)  0.1279 ( 47)  0.1322 ( 51) -0.1505 ( 63) -0.1792 ( 65)
           0.2146 ( 69)  0.1909 ( 71) -0.1122 ( 75)  0.1147 ( 83) -0.1015 (103)
          -0.1078 (115) -0.1365 (116)
 CRD 17=  -0.1352 (  5)  0.1254 (  6)  0.1378 (  8) -0.1756 ( 12) -0.1535 ( 13)
           0.1528 ( 16)  0.1178 ( 18)  0.1161 ( 21) -0.1338 ( 27)  0.1742 ( 28)
          -0.1757 ( 29)  0.1267 ( 34)  0.1187 ( 41)  0.1078 ( 45)  0.2639 ( 48)
          -0.2611 ( 49)  0.1183 ( 55) -0.1027 ( 57) -0.1063 ( 66) -0.1072 ( 69)
          -0.1017 ( 75) -0.1847 ( 78) -0.1857 ( 80) -0.1202 ( 86) -0.1467 ( 91)
           0.1345 ( 94)  0.1013 ( 96)  0.1171 ( 98) -0.1027 (101) -0.1595 (104)
          -0.1368 (110) -0.1296 (111) -0.1580 (113) -0.1305 (114) -0.1342 (115)
           0.1036 (119)
 CRD 18=   0.1089 (  8) -0.1436 ( 12) -0.1294 ( 14)  0.5091 ( 16) -0.2610 ( 18)
           0.1045 ( 21)  0.1968 ( 25) -0.1269 ( 37)  0.1204 ( 51)  0.1107 ( 63)
          -0.1035 ( 67)  0.1283 ( 78) -0.1222 ( 82) -0.1554 ( 83) -0.1771 ( 84)
          -0.1477 ( 85)  0.1124 ( 90) -0.1162 ( 91) -0.1527 ( 99) -0.1550 (102)
          -0.1195 (109)  0.1262 (111)  0.1133 (115) -0.1844 (120)
 CRD 19=   0.6178 ( 12) -0.3279 ( 14)  0.2305 ( 16)  0.1485 ( 19) -0.3303 ( 21)
           0.1061 ( 38) -0.1104 ( 68)  0.1216 ( 87) -0.1124 ( 92) -0.1189 ( 93)
          -0.1136 (107)
 CRD 20=  -0.1437 (  5)  0.3000 (  8) -0.2557 (  9)  0.1207 ( 10) -0.1377 ( 12)
          -0.1364 ( 14)  0.1040 ( 16)  0.1070 ( 19) -0.1133 ( 25)  0.1013 ( 27)
          -0.1203 ( 34)  0.1210 ( 35) -0.1750 ( 41) -0.1088 ( 44)  0.1450 ( 57)
           0.1284 ( 62)  0.1829 ( 63)  0.1051 ( 65)  0.1454 ( 72) -0.1004 ( 74)
          -0.1308 ( 75) -0.1358 ( 77)  0.1261 ( 82)  0.1484 ( 83)  0.2313 ( 84)
           0.1576 ( 85) -0.2002 ( 94) -0.1229 ( 95) -0.1145 ( 96)  0.1365 ( 99)
           0.1038 (101) -0.1143 (106)  0.1142 (109)  0.1264 (115) -0.1491 (119)
           0.1280 (120)
 CRD 21=   0.3348 (  4) -0.1505 (  5) -0.2543 (  8)  0.1068 (  9)  0.2262 ( 16)
          -0.1228 ( 34) -0.2267 ( 42)  0.1634 ( 48)  0.1088 ( 62) -0.2084 ( 65)
           0.1150 ( 66) -0.1210 ( 69) -0.1712 ( 80)  0.1147 ( 90)  0.1114 ( 92)
          -0.1641 ( 94) -0.1399 ( 95) -0.1451 ( 96) -0.1318 ( 97)  0.1621 (103)
           0.1607 (104) -0.1094 (106)  0.1493 (110) -0.1721 (114) -0.2087 (116)
          -0.1100 (119)  0.1223 (121)
 CRD 22=   0.3218 (  4) -0.1696 (  5)  0.2504 (  6)  0.2670 (  8) -0.2233 (  9)
           0.1213 ( 12)  0.2981 ( 14) -0.1471 ( 18) -0.1388 ( 21)  0.1395 ( 27)
          -0.1697 ( 28) -0.2026 ( 29)  0.1352 ( 32)  0.1345 ( 41)  0.1483 ( 49)
          -0.1357 ( 63)  0.1319 ( 78) -0.1150 ( 86)  0.1159 ( 88)  0.1334 ( 91)
           0.1147 ( 94)  0.1138 (100)  0.1313 (101) -0.1228 (107)  0.1189 (111)
           0.1273 (112)  0.1449 (113) -0.1250 (115) -0.1192 (118)
 CRD 23=  -0.1375 (  4)  0.3570 (  5)  0.1046 (  8) -0.4097 (  9)  0.1374 ( 11)
           0.1364 ( 12) -0.1180 ( 13)  0.1418 ( 18) -0.1780 ( 21)  0.1154 ( 32)
           0.1193 ( 63)  0.1073 ( 65) -0.1827 ( 86) -0.1909 ( 87) -0.1277 ( 91)
          -0.1003 (100) -0.1344 (101)  0.1257 (103) -0.1412 (107) -0.1494 (108)
          -0.1141 (112) -0.1482 (113)  0.1031 (114) -0.2024 (117) -0.1942 (118)
 CRD 24=   0.5609 (  4)  0.6140 (  5) -0.1536 ( 14) -0.1139 ( 27)  0.2199 ( 59)
           0.1325 ( 80) -0.1418 ( 91) -0.1402 (101) -0.1373 (113)  0.1114 (114)
 CRD 25=  -0.6127 (  8) -0.5590 (  9)  0.1086 ( 29) -0.2645 ( 60) -0.1112 ( 63)
           0.1479 ( 86)  0.1571 (107) -0.1142 (115)  0.1584 (118)
 CRD 26=   0.2617 (  4) -0.1679 (  6)  0.1227 (  9)  0.2754 ( 14) -0.1600 ( 18)
           0.1187 ( 25) -0.1023 ( 41) -0.1463 ( 49)  0.1034 ( 59)  0.2336 ( 63)
           0.1381 ( 64)  0.2060 ( 65) -0.3064 ( 78) -0.1418 ( 79) -0.1729 ( 80)
           0.1245 ( 82) -0.1415 ( 84)  0.1539 ( 88)  0.1098 ( 94) -0.1245 ( 97)
           0.1574 (100)  0.1406 (103) -0.1224 (104) -0.2378 (111)  0.1494 (112)
          -0.1043 (114)  0.1663 (115)  0.1387 (116)
 CRD 27=   0.1293 (  4) -0.1434 (  6)  0.1298 ( 14) -0.1015 ( 19)  0.1225 ( 63)
          -0.1374 ( 66) -0.1530 ( 67)  0.1049 ( 74) -0.1196 ( 78) -0.1799 ( 82)
          -0.1642 ( 83)  0.1359 ( 84)  0.1197 ( 85) -0.1753 ( 89) -0.1598 ( 90)
           0.1215 ( 92)  0.1655 ( 93) -0.1180 ( 95)  0.1828 ( 96)  0.1983 ( 97)
          -0.2060 ( 99)  0.1203 (102) -0.1851 (103)  0.1346 (104) -0.1380 (105)
           0.1974 (106) -0.2218 (109)  0.1786 (110)  0.1039 (115) -0.1091 (118)
          -0.1176 (119)  0.1365 (120) -0.2007 (121)  0.2129 (122)
 CRD 28=  -0.1916 ( 10) -0.3769 ( 12)  0.1587 ( 16)  0.1191 ( 17)  0.4318 ( 18)
           0.2842 ( 19) -0.3296 ( 21)  0.2324 ( 39) -0.2913 ( 52) -0.2308 ( 55)
           0.2772 ( 58)
 CRD 29=   0.1756 ( 10)  0.1737 ( 14)  0.1895 ( 15)  0.3906 ( 16) -0.5781 ( 19)
          -0.2930 ( 21) -0.1023 ( 39) -0.2582 ( 50)  0.2424 ( 56)  0.1042 ( 58)
 CRD 30=  -0.1948 ( 12) -0.1484 ( 14) -0.1499 ( 18) -0.1183 ( 19) -0.1223 ( 21)
          -0.1041 ( 25)  0.1109 ( 44)  0.1095 ( 48) -0.1093 ( 61)  0.1441 ( 65)
           0.2096 ( 67) -0.1427 ( 72) -0.1707 ( 74)  0.1152 ( 76) -0.1783 ( 80)
          -0.2589 ( 82)  0.1962 ( 89) -0.1982 ( 93) -0.1217 ( 94)  0.2867 ( 97)
           0.2027 ( 99) -0.1319 (102) -0.1236 (103)  0.1702 (104)  0.1445 (105)
          -0.1846 (106) -0.1835 (114)  0.1446 (116) -0.1512 (117) -0.1683 (118)
 CRD 31=   0.2397 (  4) -0.2581 (  5) -0.4120 (  6)  0.2131 (  7)  0.1447 (  8)
           0.1780 ( 10)  0.1457 ( 12) -0.2783 ( 14)  0.1035 ( 15) -0.1338 ( 16)
           0.2377 ( 18) -0.2096 ( 19) -0.1963 ( 20)  0.2092 ( 22) -0.1386 ( 33)
           0.1006 ( 47) -0.1037 ( 50)  0.1172 ( 58) -0.1084 ( 60) -0.1325 (117)
 CRD 32=   0.2491 (  3) -0.3801 (  6) -0.1847 (  7) -0.1636 (  9) -0.1739 ( 11)
          -0.1478 ( 14)  0.1047 ( 15)  0.1840 ( 16) -0.1749 ( 17)  0.2317 ( 21)
          -0.2088 ( 22)  0.1499 ( 27)  0.1023 ( 28)  0.2799 ( 33)  0.1361 ( 37)
           0.1020 ( 52) -0.1044 ( 54) -0.1536 ( 59)  0.1328 ( 60) -0.1062 ( 65)
           0.1376 ( 91)  0.1066 ( 94) -0.1030 (100)  0.1823 (113) -0.1300 (116)
          -0.1050 (118)  0.1114 (119)
 CRD 33=  -0.1681 (  3)  0.1868 (  7) -0.2774 ( 10) -0.1138 ( 11)  0.2090 ( 15)
           0.1679 ( 16) -0.2853 ( 17) -0.1803 ( 18)  0.2761 ( 20)  0.3101 ( 21)
           0.2163 ( 22) -0.2213 ( 33)  0.1490 ( 39) -0.1385 ( 50) -0.2374 ( 55)
           0.2144 ( 56)  0.1038 ( 59)  0.1096 ( 94) -0.1041 (101) -0.1318 (113)
          -0.1194 (117)  0.1061 (119)
 CRD 34=  -0.1952 (  3)  0.2087 (  7)  0.1369 ( 10) -0.2489 ( 11)  0.1859 ( 13)
          -0.1708 ( 15)  0.1997 ( 16)  0.1616 ( 18)  0.1059 ( 19)  0.1497 ( 22)
          -0.1520 ( 33)  0.2689 ( 37) -0.1399 ( 39) -0.2462 ( 47)  0.1733 ( 50)
           0.2397 ( 52) -0.1333 ( 54)  0.1987 ( 55) -0.2237 ( 56) -0.2370 ( 58)
          -0.1020 ( 94)  0.1262 (102) -0.1039 (108)
 CRD 35=  -0.1091 (  5) -0.2038 (  6)  0.1320 ( 11) -0.2869 ( 12)  0.2035 ( 13)
          -0.1480 ( 14)  0.1245 ( 15) -0.2072 ( 16)  0.1632 ( 17) -0.4112 ( 18)
          -0.1635 ( 19)  0.3351 ( 20) -0.4089 ( 21) -0.1080 ( 58)  0.1017 ( 74)
 CRD 36=  -0.4092 (  6)  0.1100 (  9) -0.1177 ( 10) -0.1363 ( 13)  0.3966 ( 14)
          -0.2308 ( 15)  0.1233 ( 16)  0.1433 ( 19) -0.1505 ( 26) -0.1069 ( 37)
          -0.1163 ( 40)  0.1184 ( 67) -0.1681 ( 69) -0.1146 ( 70) -0.1055 ( 71)
           0.1008 ( 72) -0.1521 ( 82)  0.1244 ( 84)  0.1643 ( 97)  0.1047 ( 98)
          -0.1185 (110)  0.1187 (111) -0.1319 (112)  0.1042 (114)  0.1268 (118)
 CRD 37=   0.1991 (  3) -0.1067 (  5) -0.1233 (  6)  0.2715 (  8) -0.2532 (  9)
          -0.1324 ( 11)  0.1351 ( 14)  0.1654 ( 19) -0.1391 ( 20) -0.1254 ( 25)
          -0.1195 ( 32)  0.1126 ( 49)  0.1245 ( 54) -0.1254 ( 63)  0.1292 ( 76)
           0.2210 ( 81)  0.1278 ( 82)  0.1285 ( 84)  0.1184 ( 87) -0.1405 ( 97)
          -0.2551 ( 98)  0.1131 (105)  0.1091 (110) -0.1214 (111) -0.1261 (112)
          -0.1432 (113) -0.2828 (114)  0.1696 (116) -0.1176 (121)
 CRD 38=  -0.1867 ( 11)  0.1095 ( 13)  0.1525 ( 14)  0.3585 ( 17) -0.1770 ( 19)
          -0.1468 ( 20)  0.1083 ( 21)  0.1353 ( 25)  0.1037 ( 28)  0.1223 ( 40)
           0.1539 ( 44) -0.1156 ( 48) -0.1254 ( 49) -0.1021 ( 53)  0.1999 ( 58)
          -0.1197 ( 63) -0.1151 ( 72) -0.1273 ( 74)  0.1158 ( 80) -0.1077 ( 84)
          -0.1732 ( 93) -0.1314 ( 94)  0.1758 ( 99)  0.2013 (103)  0.1394 (104)
           0.1494 (109) -0.1188 (112)  0.1206 (114) -0.1255 (115) -0.1256 (119)
          -0.1022 (120)  0.1300 (121)  0.1490 (122)
 CRD 39=  -0.1083 (  9) -0.2127 ( 13)  0.2278 ( 14)  0.1681 ( 18) -0.2527 ( 19)
           0.3040 ( 20)  0.1247 ( 36)  0.1376 ( 38) -0.1126 ( 45)  0.1548 ( 51)
           0.2419 ( 52) -0.2027 ( 53) -0.1105 ( 55) -0.2199 ( 56)  0.1255 ( 81)
          -0.1113 ( 82)  0.1284 ( 86)  0.1369 ( 87)  0.1276 ( 89)  0.1064 ( 94)
          -0.1234 ( 98)  0.1256 (102) -0.1120 (104) -0.1615 (105) -0.1326 (106)
          -0.1247 (110) -0.1143 (114)  0.1109 (115)  0.1006 (117)  0.1107 (120)
 CRD 40=  -0.1563 (  4)  0.1081 (  5) -0.2053 (  7)  0.1654 ( 10) -0.2229 ( 11)
           0.1444 ( 13) -0.2199 ( 15)  0.3305 ( 17) -0.1405 ( 18) -0.1450 ( 20)
           0.1549 ( 29)  0.1260 ( 32)  0.1535 ( 34) -0.1559 ( 41) -0.1220 ( 42)
           0.1089 ( 50) -0.1439 ( 57)  0.1169 ( 58)  0.1146 ( 63) -0.1071 ( 65)
           0.1520 ( 84) -0.1310 ( 87)  0.2360 ( 94) -0.1251 (116) -0.1305 (117)
           0.2518 (119)  0.2074 (120)
 CRD 41=   0.1058 (  4) -0.1138 (  8) -0.2902 ( 10) -0.1113 ( 16)  0.2240 ( 17)
          -0.1050 ( 18) -0.1252 ( 19)  0.2257 ( 21) -0.1393 ( 29)  0.1754 ( 37)
           0.1528 ( 40) -0.2123 ( 44)  0.1573 ( 46) -0.1786 ( 47) -0.1017 ( 53)
          -0.1585 ( 55)  0.1565 ( 57)  0.1843 ( 58)  0.1029 ( 65)  0.1001 ( 69)
           0.1763 ( 72)  0.1061 ( 76)  0.1137 ( 78) -0.1558 ( 86) -0.1398 ( 88)
           0.1304 ( 89) -0.1160 ( 91)  0.1247 ( 93) -0.1460 (104) -0.1322 (106)
           0.1169 (116)  0.1504 (117) -0.1055 (122)
 CRD 42=  -0.1446 (  5)  0.1809 ( 10)  0.2206 ( 15) -0.1335 ( 17) -0.1013 ( 18)
           0.2340 ( 19) -0.2742 ( 20) -0.1162 ( 27)  0.1057 ( 36) -0.1123 ( 39)
          -0.1204 ( 51) -0.1583 ( 52)  0.2016 ( 53)  0.1372 ( 55)  0.2040 ( 56)
           0.1072 ( 60)  0.1512 ( 61) -0.1837 ( 82)  0.1201 ( 89) -0.1045 ( 91)
           0.2042 ( 97)  0.1971 (102) -0.1555 (105) -0.1281 (109) -0.1698 (110)
          -0.1129 (113)  0.1536 (120)  0.1642 (121)  0.1475 (122)
 CRD 43=  -0.3127 (  3)  0.1005 (  4)  0.1663 (  5)  0.1055 (  6) -0.1355 (  7)
           0.2595 (  8) -0.1011 ( 13)  0.1794 ( 15) -0.1654 ( 18)  0.1596 ( 27)
           0.1269 ( 28)  0.1661 ( 29) -0.1072 ( 49) -0.1382 ( 51)  0.1181 ( 53)
          -0.1416 ( 54)  0.1138 ( 56) -0.2157 ( 59) -0.1694 ( 60) -0.1080 ( 63)
           0.1301 ( 81)  0.1327 ( 86) -0.1395 ( 88)  0.1078 ( 91) -0.1579 (100)
           0.1886 (107) -0.1364 (109) -0.1095 (111)  0.2158 (113) -0.1117 (114)
           0.1898 (118)
 CRD 44=  -0.1330 (  3) -0.1039 (  4)  0.1338 (  5)  0.3465 (  7) -0.2724 (  9)
           0.1017 ( 11) -0.1108 ( 12) -0.1132 ( 13)  0.1205 ( 16)  0.1154 ( 17)
          -0.1108 ( 20)  0.1729 ( 22)  0.1254 ( 27) -0.1040 ( 28) -0.1614 ( 32)
          -0.1368 ( 33) -0.1016 ( 39)  0.1033 ( 50)  0.2402 ( 60) -0.1359 ( 65)
          -0.1300 ( 71)  0.2314 ( 87)  0.1059 ( 91) -0.1166 ( 92) -0.1026 ( 99)
          -0.1116 (106) -0.1275 (107)  0.1417 (108) -0.1083 (109) -0.1582 (116)
           0.1675 (117) -0.1017 (118)
 CRD 45=  -0.1330 (  3)  0.1614 (  5) -0.1447 (  8)  0.1274 (  9)  0.1034 ( 10)
          -0.1544 ( 13)  0.1267 ( 22) -0.1209 ( 24) -0.1150 ( 26) -0.1396 ( 29)
           0.1360 ( 31)  0.1010 ( 42) -0.2166 ( 59) -0.1254 ( 67)  0.1064 ( 68)
           0.1678 ( 73) -0.1091 ( 74)  0.2019 ( 78) -0.1139 ( 80) -0.1110 ( 88)
           0.1081 ( 90)  0.1024 ( 91) -0.1278 ( 93) -0.1157 ( 97)  0.1116 ( 99)
          -0.1771 (100) -0.1329 (105)  0.1442 (106)  0.1752 (109)  0.1281 (111)
           0.1225 (113) -0.1878 (114)  0.1194 (115)  0.1577 (116) -0.1097 (118)
           0.1361 (120) -0.2017 (121)
 CRD 46=  -0.2143 (  3)  0.1986 (  4)  0.1021 (  6) -0.1293 (  8)  0.1489 ( 14)
          -0.1471 ( 16) -0.1007 ( 22) -0.1335 ( 23)  0.1020 ( 24)  0.1975 ( 26)
           0.1803 ( 28) -0.1130 ( 31)  0.1035 ( 38) -0.1310 ( 41) -0.1323 ( 43)
           0.1087 ( 46) -0.1302 ( 47) -0.1345 ( 50) -0.1348 ( 59)  0.1469 ( 60)
           0.1537 ( 62)  0.2146 ( 63) -0.1237 ( 65) -0.1519 ( 77) -0.2255 ( 88)
          -0.2035 (102)  0.1332 (105) -0.1123 (107)  0.1126 (109)  0.1799 (115)
          -0.1584 (116)  0.1693 (119) -0.1237 (120)
 CRD 47=   0.1647 (  3) -0.1415 (  5)  0.1461 ( 10) -0.1975 ( 11) -0.2728 ( 13)
           0.1504 ( 14)  0.1750 ( 15) -0.1045 ( 18) -0.1232 ( 27) -0.1440 ( 36)
           0.1146 ( 38)  0.2045 ( 44)  0.1748 ( 46) -0.1185 ( 51) -0.1855 ( 54)
           0.1233 ( 59)  0.1459 ( 67)  0.1961 ( 69) -0.1011 ( 72)  0.1029 ( 73)
          -0.1084 ( 81) -0.1334 ( 91) -0.1957 (101) -0.1493 (103)  0.1004 (104)
           0.1938 (110)  0.2033 (112)  0.1023 (114) -0.1410 (117) -0.1385 (118)
          -0.1480 (122)
 CRD 48=  -0.1010 (  3)  0.1589 (  4)  0.1100 (  9)  0.1566 ( 10) -0.1152 ( 11)
           0.1958 ( 13) -0.1188 ( 15)  0.1104 ( 23) -0.1092 ( 24)  0.1691 ( 31)
           0.1312 ( 35) -0.1885 ( 36)  0.1219 ( 44) -0.1320 ( 46)  0.1032 ( 54)
          -0.1164 ( 59) -0.1517 ( 66)  0.1027 ( 68)  0.1227 ( 70)  0.1553 ( 71)
           0.1020 ( 73) -0.1371 ( 75)  0.1166 ( 78)  0.1054 ( 83) -0.1134 ( 88)
           0.1154 ( 89) -0.1198 ( 92)  0.1130 ( 93) -0.1263 ( 99) -0.1767 (106)
          -0.1928 (109)  0.2183 (110)  0.1136 (111) -0.2703 (112) -0.1362 (117)
          -0.1252 (118)  0.2254 (121) -0.1081 (122)
 CRD 49=  -0.1692 (  4)  0.1751 (  5) -0.1600 ( 11)  0.1008 ( 13)  0.1723 ( 15)
          -0.2684 ( 16) -0.1169 ( 17)  0.1301 ( 22) -0.1185 ( 24) -0.1335 ( 26)
           0.1057 ( 27) -0.1414 ( 28)  0.1003 ( 31)  0.1685 ( 38) -0.1717 ( 43)
           0.1515 ( 46) -0.1585 ( 47)  0.1139 ( 48) -0.1000 ( 49) -0.1203 ( 50)
           0.1136 ( 51)  0.1900 ( 61)  0.1044 ( 62) -0.1410 ( 66) -0.1369 ( 67)
          -0.1002 ( 69) -0.2583 ( 70)  0.1094 ( 79) -0.1269 ( 80)  0.1411 ( 89)
           0.1369 ( 90) -0.1018 ( 91)  0.1976 ( 98)  0.2409 (100)  0.1961 (101)
           0.1011 (112) -0.1284 (115)  0.1009 (120)
 CRD 50=  -0.1067 (  7)  0.1272 (  8)  0.1618 ( 11) -0.1842 ( 23)  0.1013 ( 25)
           0.2292 ( 31)  0.1723 ( 35) -0.1669 ( 36)  0.1725 ( 40)  0.1295 ( 41)
           0.1377 ( 43) -0.1101 ( 45) -0.1338 ( 48)  0.1814 ( 61)  0.1221 ( 62)
           0.1535 ( 64) -0.1414 ( 66) -0.1302 ( 68)  0.2018 ( 75) -0.1275 ( 76)
          -0.1358 ( 79) -0.2418 ( 83)  0.1025 ( 89)  0.1480 ( 92) -0.1057 ( 93)
           0.1669 ( 96) -0.1377 (103)  0.1114 (104) -0.1013 (108)  0.2024 (109)
          -0.1424 (110) -0.1444 (115)  0.1101 (118)  0.1102 (120) -0.2271 (122)
 CRD 51=   0.1305 (  7) -0.1265 ( 10) -0.1822 ( 11)  0.1678 ( 12) -0.1719 ( 15)
           0.1394 ( 39) -0.1602 ( 40)  0.2226 ( 45)  0.1012 ( 60)  0.1392 ( 61)
          -0.1249 ( 62)  0.1421 ( 68) -0.2011 ( 74)  0.1494 ( 77) -0.1556 ( 83)
          -0.1672 ( 85) -0.1029 ( 86)  0.1139 ( 89)  0.1764 ( 96) -0.1115 (103)
          -0.1499 (105)  0.1380 (107)  0.2449 (108)  0.1555 (109) -0.2650 (119)
           0.2322 (120) -0.1911 (122)
 CRD 52=   0.1726 ( 12) -0.1165 ( 21) -0.1053 ( 23) -0.1171 ( 30)  0.1753 ( 31)
           0.2132 ( 35)  0.1398 ( 41)  0.1243 ( 62)  0.1160 ( 64) -0.1182 ( 67)
           0.1877 ( 68) -0.2508 ( 74) -0.2073 ( 75)  0.1268 ( 76) -0.1072 ( 79)
          -0.1024 ( 80) -0.1479 ( 82)  0.1334 ( 90)  0.1380 ( 92) -0.1193 ( 95)
          -0.1803 ( 96)  0.1899 (107)  0.3029 (108)  0.1233 (111)  0.2270 (119)
          -0.1321 (121)  0.2333 (122)
 CRD 53=  -0.1157 ( 35) -0.1004 ( 62)  0.1067 ( 63)  0.1899 ( 64)  0.1372 ( 65)
           0.1549 ( 66) -0.1924 ( 68)  0.1648 ( 74) -0.1203 ( 76) -0.1924 ( 79)
          -0.1930 ( 80)  0.1970 ( 83) -0.1679 ( 85)  0.1757 ( 90) -0.1839 ( 92)
           0.1777 ( 95) -0.2007 ( 96)  0.1114 ( 98) -0.1100 (108) -0.1577 (109)
           0.2425 (111)  0.1108 (114) -0.1782 (115) -0.1477 (116) -0.2033 (119)
           0.1561 (120) -0.1635 (121)  0.2371 (122)
 CRD 54=   0.3433 ( 23) -0.1062 ( 32) -0.1182 ( 35)  0.3274 ( 36) -0.1260 ( 43)
          -0.2314 ( 61) -0.1291 ( 62)  0.1419 ( 64)  0.1560 ( 65)  0.1841 ( 76)
          -0.1443 ( 79) -0.2224 ( 80) -0.1232 ( 81)  0.1880 ( 85) -0.1375 ( 90)
          -0.1803 ( 95)  0.1208 ( 96)  0.1440 ( 98)  0.1156 (109)  0.2597 (111)
          -0.1858 (115) -0.1091 (116) -0.1117 (120)  0.1341 (121) -0.1648 (122)

 THE DETERMINANT OF THE G MATRIX IS 10**(   -20)


                     --------------------
                     INTERNAL COORDINATES
                     --------------------

                 - - ATOMS - -         COORDINATE      COORDINATE
 NO.   TYPE    I  J  K  L  M  N        (BOHR,RAD)       (ANG,DEG)
 ----------------------------------------------------------------
   1 STRETCH   1  6                     3.7845108       2.0026770
   2 STRETCH   3  4                     3.7769901       1.9986972
   3 STRETCH   1  2                     2.5864238       1.3686766
   4 STRETCH   1 12                     2.0822595       1.1018843
   5 STRETCH   1 11                     2.0711324       1.0959962
   6 STRETCH   2 13                     2.0539927       1.0869262
   7 STRETCH   2  3                     2.8279791       1.4965022
   8 STRETCH   3 14                     2.0082675       1.0627295
   9 STRETCH   3 15                     2.1296975       1.1269875
  10 STRETCH   4  9                     2.8546972       1.5106408
  11 STRETCH   4  5                     2.8048746       1.4842758
  12 STRETCH   4 16                     2.0266931       1.0724799
  13 STRETCH   5  6                     2.5775063       1.3639577
  14 STRETCH   5 17                     2.0330028       1.0758188
  15 STRETCH   6  7                     2.8354902       1.5004769
  16 STRETCH   6 18                     2.0800204       1.1006995
  17 STRETCH   7  8                     2.5514564       1.3501727
  18 STRETCH   7 19                     2.0542694       1.0870726
  19 STRETCH   8 20                     2.0482064       1.0838642
  20 STRETCH   8  9                     2.8197447       1.4921447
  21 STRETCH   9 10                     2.3329182       1.2345272
  22 BEND      1  2 13                  2.1349037     122.3209733
  23 BEND      1  6  7                  2.0088649     115.0994813
  24 BEND      1  6  5                  1.7925727     102.7068530
  25 BEND      1  6 18                  1.6804929      96.2851512
  26 BEND      1  2  3                  2.1498608     123.1779493
  27 BEND      2  1 12                  2.0742133     118.8436689
  28 BEND      2  1 11                  2.0104829     115.1921824
  29 BEND      2  3 15                  2.0926427     119.8995960
  30 BEND      2  3  4                  1.8699342     107.1393396
  31 BEND      2  1  6                  1.9383544     111.0595249
  32 BEND      2  3 14                  2.0041926     114.8317791
  33 BEND      3  2 13                  1.9927077     114.1737418
  34 BEND      3  4 16                  1.5221850      87.2147738
  35 BEND      3  4  5                  1.6506035      94.5726141
  36 BEND      3  4  9                  2.4318745     139.3361461
  37 BEND      4  5 17                  2.0326585     116.4627559
  38 BEND      4  5  6                  1.9705614     112.9048504
  39 BEND      4  9 10                  2.1092937     120.8536243
  40 BEND      4  9  8                  2.0363550     116.6745477
  41 BEND      4  3 15                  1.8106042     103.7399816
  42 BEND      4  3 14                  1.7874882     102.4155301
  43 BEND      5  6  7                  1.9014746     108.9464689
  44 BEND      5  4 16                  2.2747279     130.3323082
  45 BEND      5  4  9                  1.9325417     110.7264813
  46 BEND      5  6 18                  2.0290401     116.2554319
  47 BEND      6  5 17                  2.0912600     119.8203730
  48 BEND      6  1 12                  1.4188615      81.2947765
  49 BEND      6  1 11                  1.9981235     114.4840435
  50 BEND      6  7 19                  2.0155101     115.4802214
  51 BEND      6  7  8                  2.1395486     122.5871060
  52 BEND      7  8 20                  2.1932432     125.6635764
  53 BEND      7  8  9                  2.0588740     117.9647921
  54 BEND      7  6 18                  2.0307207     116.3517237
  55 BEND      8  9 10                  2.1003552     120.3414867
  56 BEND      8  7 19                  2.1174925     121.3233852
  57 BEND      9  4 16                  1.7224593      98.6896508
  58 BEND      9  8 20                  2.0252346     116.0373944
  59 BEND     11  1 12                  1.9467385     111.5399025
  60 BEND     14  3 15                  1.8645999     106.8337043
  61 TORSION   1  6  5 17               1.4292414      81.8894979
  62 TORSION   1  6  5  4              -1.0684626     -61.2184002
  63 TORSION   1  2  3 15              -2.3328875    -133.6646094
  64 TORSION   1  2  3  4              -0.2795336     -16.0160952
  65 TORSION   1  2  3 14               1.6925648      96.9768171
  66 TORSION   1  6  7  8               1.4741540      84.4628014
  67 TORSION   1  6  7 19              -1.8218917    -104.3867076
  68 TORSION   2  3  4  9               1.4420362      82.6225884
  69 TORSION   2  1  6 18               1.8546416     106.2631390
  70 TORSION   2  1  6  5              -0.2180148     -12.4913270
  71 TORSION   2  1  6  7              -2.2816911    -130.7312693
  72 TORSION   2  3  4 16              -3.0939413    -177.2697772
  73 TORSION   2  3  4  5              -0.8205983     -47.0168180
  74 TORSION   3  4  9 10               1.6052787      91.9756943
  75 TORSION   3  4  9  8              -1.8249456    -104.5616805
  76 TORSION   3  4  5 17              -0.9531852     -54.6134882
  77 TORSION   3  4  5  6               1.5674939      89.8107854
  78 TORSION   3  2  1 11               3.1098845     178.1832545
  79 TORSION   3  2  1  6               0.8022995      45.9683773
  80 TORSION   3  2  1 12              -0.7954151     -45.5739271
  81 TORSION   4  3  2 13               2.7496494     157.5433085
  82 TORSION   4  9  8 20              -2.8884396    -165.4953957
  83 TORSION   4  9  8  7               0.1439234       8.2462009
  84 TORSION   4  5  6 18              -2.8778760    -164.8901512
  85 TORSION   4  5  6  7               1.0693939      61.2717547
  86 TORSION   5  4  3 15               1.4093173      80.7479328
  87 TORSION   5  4  3 14              -2.9357744    -168.2074839
  88 TORSION   5  6  1 11              -2.5318661    -145.0652408
  89 TORSION   5  6  7 19               2.4596790     140.9292270
  90 TORSION   5  6  7  8              -0.5274606     -30.2212640
  91 TORSION   5  6  1 12               1.8353056     105.1552629
  92 TORSION   5  4  9  8               0.3539393      20.2792278
  93 TORSION   5  4  9 10              -2.4990217    -143.1833973
  94 TORSION   6  5  4 16              -3.1409395    -179.9625772
  95 TORSION   6  5  4  9              -1.0077917     -57.7422113
  96 TORSION   6  7  8  9              -0.0776387      -4.4483707
  97 TORSION   6  7  8 20               2.9431009     168.6272609
  98 TORSION   6  1  2 13              -2.2178966    -127.0761121
  99 TORSION   7  8  9 10               2.9984493     171.7984914
 100 TORSION   7  6  1 11               1.6876429      96.6948169
 101 TORSION   7  6  1 12              -0.2283707     -13.0846793
 102 TORSION   7  6  5 17              -2.7160874    -155.6203472
 103 TORSION   8  7  6 18              -2.8625101    -164.0097465
 104 TORSION   8  9  4 16               2.7847846     159.5564040
 105 TORSION   9  4  5 17               2.7547145     157.8335151
 106 TORSION   9  8  7 19              -3.0559349    -175.0921746
 107 TORSION   9  4  3 15              -2.6112335    -149.6126609
 108 TORSION   9  4  3 14              -0.6731399     -38.5680776
 109 TORSION  10  9  8 20              -0.0339136      -1.9431052
 110 TORSION  10  9  4 16              -0.0681764      -3.9062212
 111 TORSION  11  1  2 13               0.0896884       5.1387651
 112 TORSION  11  1  6 18              -0.4592096     -26.3107747
 113 TORSION  12  1  6 18              -2.3752233    -136.0902710
 114 TORSION  12  1  2 13               2.4675741     141.3815835
 115 TORSION  13  2  3 15               0.6962955      39.8947943
 116 TORSION  13  2  3 14              -1.5614375     -89.4637792
 117 TORSION  14  3  4 16               1.0740679      61.5395569
 118 TORSION  15  3  4 16              -0.8640257     -49.5050264
 119 TORSION  16  4  5 17               0.6215667      35.6131492
 120 TORSION  17  5  6 18              -0.3801720     -21.7822532
 121 TORSION  18  6  7 19               0.1246295       7.1407446
 122 TORSION  19  7  8 20              -0.0351953      -2.0165431

     ------------------------------------------
     THE POINT GROUP IS C1 , NAXIS= 0, ORDER= 1
     ------------------------------------------

     DIMENSIONS OF THE SYMMETRY SUBSPACES ARE
 A   =   60

 ..... DONE SETTING UP THE RUN .....
 STEP CPU TIME =     0.07 TOTAL CPU TIME =          0.1 (      0.0 MIN)
 TOTAL WALL CLOCK TIME=          0.1 SECONDS, CPU UTILIZATION IS    70.00%


          -----------------------------
          STATIONARY POINT LOCATION RUN
          -----------------------------


           ** GEOMETRY CONSTRAINTS ARE BEING APPLIED. **

          TRANSFORMING DISPLACEMENT FROM INTERNALS TO CARTESIANS
          THE ROOT MEAN SQUARE ERROR IN ITERATION   1 IS   0.00000127
          THE ROOT MEAN SQUARE ERROR IN ITERATION   2 IS   0.00000000
 WARNING! THE RADIUS IN CARTESIANS IS    0.00923
 OBTAINING INITIAL HESSIAN, HESS=CALC    

     ---------------------------------
     HESSIAN MATRIX CONTROL PARAMETERS
     ---------------------------------
     METHOD=ANALYTIC   NVIB  =       2   VIBSIZ= 0.01000
     RDHESS=       F   PURIFY=       F   PRTIFC=       F
     VIBANL=       F   DECOMP=       F   PROJCT=       F
     SCLFAC= 1.00000   PRTSCN=       F   NPRT  =       0
     PULCOR=       F   NPUN  =       0   REDOVB=       T
     HSSTYP=GENERAL 
 Old integral subroutine is used

     ------------------------------
     CPHF RESPONSE SOLUTION OPTIONS
     ------------------------------
     POLAR  =       F     NWORD  =       0
     CPHF   =AO      

          ********************
          1 ELECTRON INTEGRALS
          ********************
 ...... END OF ONE-ELECTRON INTEGRALS ......
 STEP CPU TIME =     0.03 TOTAL CPU TIME =          0.1 (      0.0 MIN)
 TOTAL WALL CLOCK TIME=          0.1 SECONDS, CPU UTILIZATION IS    71.43%

          -------------
          GUESS OPTIONS
          -------------
          GUESS =HUCKEL            NORB  =       0          NORDER=       0
          MIX   =       F          PRTMO =       F          PUNMO =       F
          TOLZ  = 1.0E-08          TOLE  = 1.0E-05
          SYMDEN=       F          PURIFY=       F

 INITIAL GUESS ORBITALS GENERATED BY HUCKEL   ROUTINE.
 HUCKEL GUESS REQUIRES     53820 WORDS.

 SYMMETRIES FOR INITIAL GUESS ORBITALS FOLLOW.   BOTH SET(S).
    36 ORBITALS ARE OCCUPIED (   10 CORE ORBITALS).
    11=A       12=A       13=A       14=A       15=A       16=A       17=A   
    18=A       19=A       20=A       21=A       22=A       23=A       24=A   
    25=A       26=A       27=A       28=A       29=A       30=A       31=A   
    32=A       33=A       34=A       35=A       36=A       37=A       38=A   
    39=A       40=A       41=A       42=A       43=A       44=A       45=A   
    46=A   
 ...... END OF INITIAL ORBITAL SELECTION ......
 STEP CPU TIME =     0.02 TOTAL CPU TIME =          0.1 (      0.0 MIN)
 TOTAL WALL CLOCK TIME=          0.2 SECONDS, CPU UTILIZATION IS    75.00%

                    ----------------------
                    AO INTEGRAL TECHNOLOGY
                    ----------------------
     S,P,L SHELL ROTATED AXIS INTEGRALS, REPROGRAMMED BY
        KAZUYA ISHIMURA (IMS) AND JOSE SIERRA (SYNSTAR).
     S,P,D,L SHELL ROTATED AXIS INTEGRALS PROGRAMMED BY
        KAZUYA ISHIMURA (INSTITUTE FOR MOLECULAR SCIENCE).
     S,P,D,F,G SHELL TO TOTAL QUARTET ANGULAR MOMENTUM SUM 5,
        ERIC PROGRAM BY GRAHAM FLETCHER (ELORET AND NASA ADVANCED
        SUPERCOMPUTING DIVISION, AMES RESEARCH CENTER).
     S,P,D,F,G,L SHELL GENERAL RYS QUADRATURE PROGRAMMED BY
        MICHEL DUPUIS (PACIFIC NORTHWEST NATIONAL LABORATORY).

          --------------------
          2 ELECTRON INTEGRALS
          --------------------

 THE -PK- OPTION IS OFF, THE INTEGRALS ARE NOT IN SUPERMATRIX FORM.
 STORING   15000 INTEGRALS/RECORD ON DISK, USING 12 BYTES/INTEGRAL.
 TWO ELECTRON INTEGRAL EVALUATION REQUIRES   89821 WORDS OF MEMORY.
 SCHWARZ INEQUALITY OVERHEAD:      1798 INTEGRALS, T=        0.00
 II,JST,KST,LST =  1  1  1  1 NREC =         1 INTLOC =    1
 II,JST,KST,LST =  2  1  1  1 NREC =         1 INTLOC =    2
 II,JST,KST,LST =  3  1  1  1 NREC =         1 INTLOC =   34
 II,JST,KST,LST =  4  1  1  1 NREC =         1 INTLOC =  144
 II,JST,KST,LST =  5  1  1  1 NREC =         1 INTLOC = 1366
 II,JST,KST,LST =  6  1  1  1 NREC =         1 INTLOC = 1951
 II,JST,KST,LST =  7  1  1  1 NREC =         1 INTLOC = 6848
 II,JST,KST,LST =  8  1  1  1 NREC =         1 INTLOC = 8465
 II,JST,KST,LST =  9  1  1  1 NREC =         2 INTLOC = 5875
 II,JST,KST,LST = 10  1  1  1 NREC =         2 INTLOC = 9634
 II,JST,KST,LST = 11  1  1  1 NREC =         4 INTLOC = 4971
 II,JST,KST,LST = 12  1  1  1 NREC =         4 INTLOC =12102
 II,JST,KST,LST = 13  1  1  1 NREC =         7 INTLOC =12188
 II,JST,KST,LST = 14  1  1  1 NREC =         8 INTLOC = 7835
 II,JST,KST,LST = 15  1  1  1 NREC =        13 INTLOC = 3922
 II,JST,KST,LST = 16  1  1  1 NREC =        14 INTLOC = 3718
 II,JST,KST,LST = 17  1  1  1 NREC =        21 INTLOC = 3042
 II,JST,KST,LST = 18  1  1  1 NREC =        22 INTLOC =12799
 II,JST,KST,LST = 19  1  1  1 NREC =        33 INTLOC = 1926
 II,JST,KST,LST = 20  1  1  1 NREC =        34 INTLOC =10289
 II,JST,KST,LST = 21  1  1  1 NREC =        46 INTLOC = 2750
 II,JST,KST,LST = 22  1  1  1 NREC =        49 INTLOC =11847
 II,JST,KST,LST = 23  1  1  1 NREC =        54 INTLOC = 1099
 II,JST,KST,LST = 24  1  1  1 NREC =        57 INTLOC =13827
 II,JST,KST,LST = 25  1  1  1 NREC =        62 INTLOC = 7903
 II,JST,KST,LST = 26  1  1  1 NREC =        67 INTLOC = 4127
 II,JST,KST,LST = 27  1  1  1 NREC =        72 INTLOC = 9603
 II,JST,KST,LST = 28  1  1  1 NREC =        78 INTLOC = 3679
 II,JST,KST,LST = 29  1  1  1 NREC =        83 INTLOC =14521
 II,JST,KST,LST = 30  1  1  1 NREC =        89 INTLOC =12980
 SCHWARZ INEQUALITY TEST SKIPPED       28270 INTEGRAL BLOCKS.
 TOTAL NUMBER OF NONZERO TWO-ELECTRON INTEGRALS =             1424349
         95 INTEGRAL RECORDS WERE STORED ON DISK FILE  8.
  ...... END OF TWO-ELECTRON INTEGRALS .....
 STEP CPU TIME =     0.28 TOTAL CPU TIME =          0.4 (      0.0 MIN)
 TOTAL WALL CLOCK TIME=          0.4 SECONDS, CPU UTILIZATION IS    90.91%

          --------------------------
                 RHF SCF CALCULATION
          --------------------------

     NUCLEAR ENERGY =       499.8888953726
     MAXIT =   30     NPUNCH=    2
     EXTRAP=T  DAMP=F  SHIFT=F  RSTRCT=F  DIIS=F  DEM=F  SOSCF=T
     DENSITY MATRIX CONV=  1.00E-05
     SOSCF WILL OPTIMIZE     864 ORBITAL ROTATIONS, SOGTOL=   0.250
     MEMORY REQUIRED FOR RHF ITERS=     59496 WORDS.

 ITER EX DEM     TOTAL ENERGY        E CHANGE  DENSITY CHANGE     ORB. GRAD
   1  0  0     -415.3542623860  -415.3542623860   0.516165836   0.000000000
          ---------------START SECOND ORDER SCF---------------
   2  1  0     -415.8850636723    -0.5308012862   0.274969595   0.069295365
   3  2  0     -415.9178593731    -0.0327957009   0.124887608   0.055814912
   4  3  0     -415.9656217167    -0.0477623436   0.031273960   0.008456604
   5  4  0     -415.9674574502    -0.0018357335   0.011251509   0.003636819
   6  5  0     -415.9677959132    -0.0003384630   0.003498729   0.000953536
   7  6  0     -415.9678408345    -0.0000449214   0.001882521   0.000439633
   8  7  0     -415.9678464343    -0.0000055998   0.001114003   0.000160305
   9  8  0     -415.9678472767    -0.0000008424   0.000544458   0.000063952
  10  9  0     -415.9678474432    -0.0000001665   0.000180142   0.000019412
  11 10  0     -415.9678474666    -0.0000000234   0.000066240   0.000010995
  12 11  0     -415.9678474714    -0.0000000048   0.000017817   0.000002972
  13 12  0     -415.9678474720    -0.0000000006   0.000007306   0.000001175
  14 13  0     -415.9678474721    -0.0000000001   0.000002455   0.000000477

          -----------------
          DENSITY CONVERGED
          -----------------
     TIME TO FORM FOCK OPERATORS=       0.3 SECONDS (       0.0 SEC/ITER)
     TIME TO SOLVE SCF EQUATIONS=       0.1 SECONDS (       0.0 SEC/ITER)

 FINAL RHF ENERGY IS     -415.9678474721 AFTER  14 ITERATIONS

          ------------
          EIGENVECTORS
          ------------

                      1          2          3          4          5
                  -20.2599   -11.1104   -11.0592   -11.0480   -11.0461
                     A          A          A          A          A   
    1  C  1  S   -0.000001   0.000093  -0.000840   0.002874  -0.025695
    2  C  1  S    0.000007   0.000092   0.000070   0.000642  -0.003302
    3  C  1  X    0.000002   0.000005   0.000027   0.000124  -0.002133
    4  C  1  Y    0.000004   0.000058   0.000063   0.000272  -0.000859
    5  C  1  Z   -0.000002  -0.000038  -0.000017  -0.000061  -0.000903
    6  C  2  S   -0.000000   0.000008  -0.001217  -0.000000  -0.000394
    7  C  2  S    0.000001   0.000004  -0.005805  -0.000069   0.000301
    8  C  2  X    0.000003   0.000003   0.000729  -0.000044   0.000216
    9  C  2  Y    0.000002   0.000002  -0.003151  -0.000005   0.000074
   10  C  2  Z   -0.000000   0.000006  -0.002720   0.000019  -0.000084
   11  C  3  S    0.000000   0.000005   0.992197  -0.000106  -0.001398
   12  C  3  S   -0.000003   0.000002   0.034809   0.000003   0.000137
   13  C  3  X    0.000010  -0.000060  -0.001847   0.000004   0.000126
   14  C  3  Y   -0.000003   0.000057  -0.000421   0.000005   0.000110
   15  C  3  Z   -0.000003  -0.000046  -0.000046  -0.000019  -0.000029
   16  C  4  S   -0.000033  -0.001515  -0.016064  -0.005187  -0.067810
   17  C  4  S    0.000389  -0.005562  -0.002798  -0.000123  -0.002479
   18  C  4  X   -0.000140  -0.001410   0.001927  -0.000049  -0.000194
   19  C  4  Y    0.000472  -0.003155   0.001533  -0.000020   0.000056
   20  C  4  Z    0.000217   0.002361  -0.000288   0.000074   0.000264
   21  C  5  S    0.000001  -0.000454  -0.001549  -0.003408   0.011281
   22  C  5  S    0.000022   0.000025  -0.000053   0.000387  -0.006828
   23  C  5  X   -0.000036  -0.000109   0.000184  -0.000103  -0.001467
   24  C  5  Y   -0.000025  -0.000116   0.000245  -0.000427   0.002155
   25  C  5  Z    0.000033   0.000095   0.000030  -0.000104   0.004157
   26  C  6  S    0.000003  -0.000236   0.000225  -0.064039   0.987275
   27  C  6  S    0.000005  -0.000007   0.000096  -0.008163   0.036165
   28  C  6  X    0.000029   0.000031  -0.000036  -0.001751   0.001218
   29  C  6  Y   -0.000033  -0.000081   0.000014  -0.003130   0.001185
   30  C  6  Z   -0.000004   0.000030   0.000062   0.002156   0.002241
   31  C  7  S    0.000007  -0.000415   0.000031   0.990050   0.064606
   32  C  7  S    0.000021   0.000111  -0.000005   0.035909  -0.003830
   33  C  7  X    0.000057   0.000016  -0.000010  -0.000145   0.001603
   34  C  7  Y    0.000029  -0.000005  -0.000002   0.000911   0.003249
   35  C  7  Z   -0.000056   0.000016  -0.000013   0.000795  -0.002579
   36  C  8  S   -0.000027  -0.000774   0.000011   0.011545   0.000314
   37  C  8  S    0.000353  -0.005926   0.000011  -0.007140  -0.000305
   38  C  8  X   -0.000031   0.002930  -0.000003  -0.001171  -0.000129
   39  C  8  Y    0.000486  -0.001148   0.000002   0.004293   0.000212
   40  C  8  Z    0.000056  -0.002781   0.000010   0.000399   0.000170
   41  C  9  S    0.000559   0.992507  -0.000045   0.000459   0.000130
   42  C  9  S   -0.007052   0.033193  -0.000043   0.000152   0.000407
   43  C  9  X    0.001182   0.000793  -0.000165  -0.000001  -0.000143
   44  C  9  Y   -0.005964   0.000445   0.000024   0.000181  -0.000093
   45  C  9  Z   -0.001389   0.000710  -0.000117   0.000008   0.000269
   46  O 10  S    0.994287   0.000198  -0.000000   0.000014   0.000009
   47  O 10  S    0.025786  -0.005837  -0.000008  -0.000122  -0.000085
   48  O 10  X    0.001062  -0.000453   0.000018  -0.000027  -0.000004
   49  O 10  Y   -0.005215   0.001784   0.000002   0.000056   0.000054
   50  O 10  Z   -0.001185   0.000350   0.000028   0.000031  -0.000009
   51  H 11  S   -0.000000  -0.000002  -0.000047  -0.000033   0.000260
   52  H 12  S   -0.000013  -0.000172  -0.000083  -0.000759  -0.000265
   53  H 13  S    0.000001   0.000002   0.000020   0.000004   0.000008
   54  H 14  S    0.000013  -0.000042  -0.007205   0.000001   0.000003
   55  H 15  S    0.000006   0.000007  -0.006497   0.000005  -0.000001
   56  H 16  S   -0.000314  -0.000365   0.000031  -0.000003   0.000332
   57  H 17  S   -0.000019  -0.000082  -0.000103  -0.000125   0.000069
   58  H 18  S   -0.000017  -0.000033   0.000005   0.000524  -0.006767
   59  H 19  S   -0.000024  -0.000060   0.000001  -0.006808  -0.000348
   60  H 20  S   -0.000215   0.000009   0.000001   0.000059  -0.000012

                      6          7          8          9         10
                  -11.0453   -11.0358   -11.0220   -11.0187   -11.0057
                     A          A          A          A          A   
    1  C  1  S   -0.003968   0.991794   0.002627  -0.000396  -0.007569
    2  C  1  S   -0.000321   0.036128   0.000152   0.000064  -0.007585
    3  C  1  X   -0.000113  -0.002180  -0.000012   0.000004   0.003043
    4  C  1  Y   -0.000214   0.000041  -0.000153   0.000052   0.000142
    5  C  1  Z   -0.000268  -0.000018  -0.000202  -0.000047  -0.003435
    6  C  2  S   -0.000202   0.008270  -0.004435  -0.000101   0.992173
    7  C  2  S    0.000171  -0.007178  -0.000349  -0.000002   0.035841
    8  C  2  X    0.000111  -0.003017  -0.000416  -0.000002   0.001122
    9  C  2  Y    0.000022  -0.000116  -0.000123  -0.000006   0.000024
   10  C  2  Z   -0.000022   0.003502  -0.000138  -0.000003  -0.000301
   11  C  3  S    0.016773   0.000922   0.001709   0.000023   0.002151
   12  C  3  S   -0.001772   0.000128  -0.000078  -0.000005  -0.005801
   13  C  3  X   -0.001784  -0.000017  -0.000517  -0.000010  -0.000776
   14  C  3  Y   -0.001395  -0.000026   0.000206   0.000002   0.003249
   15  C  3  Z    0.000399   0.000010  -0.000070  -0.000006   0.002749
   16  C  4  S    0.989778   0.002239   0.002548   0.000711   0.000139
   17  C  4  S    0.034958   0.000037  -0.005981   0.000170   0.000129
   18  C  4  X    0.001692   0.000059  -0.002923   0.000005  -0.000053
   19  C  4  Y    0.001574   0.000105   0.003343   0.000096  -0.000003
   20  C  4  Z    0.000739   0.000112  -0.000138   0.000006   0.000085
   21  C  5  S   -0.000948  -0.002217   0.991985   0.013975   0.004589
   22  C  5  S   -0.006394  -0.000192   0.036341   0.000303  -0.000099
   23  C  5  X    0.002650   0.000056  -0.002129  -0.000112   0.000333
   24  C  5  Y   -0.003060   0.000035  -0.001504  -0.000245   0.000205
   25  C  5  Z    0.000276   0.000049  -0.002038   0.000174   0.000156
   26  C  6  S    0.067401   0.026888  -0.010683   0.000329   0.000140
   27  C  6  S    0.002441  -0.001463  -0.007932   0.000251   0.000156
   28  C  6  X    0.000247   0.002210   0.001175   0.000105  -0.000012
   29  C  6  Y   -0.000117   0.001068  -0.001578   0.000078   0.000026
   30  C  6  Z    0.000179   0.000668  -0.004323  -0.000095  -0.000073
   31  C  7  S    0.009646  -0.001228   0.003000  -0.010854   0.000057
   32  C  7  S   -0.000092  -0.000043   0.000173  -0.008092  -0.000044
   33  C  7  X    0.000220  -0.000239   0.000032   0.001136   0.000001
   34  C  7  Y    0.000158   0.000016  -0.000123  -0.004431   0.000035
   35  C  7  Z   -0.000225  -0.000200  -0.000373  -0.000504  -0.000017
   36  C  8  S   -0.000574   0.000386  -0.013850   0.992028   0.000036
   37  C  8  S    0.000121   0.000036  -0.000582   0.036178  -0.000005
   38  C  8  X   -0.000026  -0.000026   0.000014   0.000177  -0.000004
   39  C  8  Y    0.000010  -0.000023   0.000136  -0.001426   0.000002
   40  C  8  Z    0.000075   0.000005  -0.000250   0.000564  -0.000001
   41  C  9  S    0.002503  -0.000102   0.000531   0.001768  -0.000007
   42  C  9  S   -0.006017   0.000018   0.000139  -0.006207   0.000004
   43  C  9  X    0.001318  -0.000031  -0.000094  -0.003147  -0.000006
   44  C  9  Y    0.003190  -0.000051   0.000086   0.000966  -0.000012
   45  C  9  Z   -0.002621  -0.000043  -0.000106   0.002758  -0.000006
   46  O 10  S   -0.000029  -0.000001   0.000005  -0.000021  -0.000001
   47  O 10  S    0.000319   0.000012  -0.000059   0.000299   0.000005
   48  O 10  X   -0.000071   0.000007   0.000030   0.000132   0.000001
   49  O 10  Y   -0.000200  -0.000006   0.000026  -0.000117  -0.000002
   50  O 10  Z    0.000165   0.000001   0.000018  -0.000114  -0.000000
   51  H 11  S   -0.000045  -0.006852  -0.000109  -0.000000   0.000095
   52  H 12  S   -0.000253  -0.006703   0.000024  -0.000156   0.000026
   53  H 13  S   -0.000050   0.000082  -0.000019  -0.000000  -0.006891
   54  H 14  S   -0.000029  -0.000001  -0.000198  -0.000003  -0.000129
   55  H 15  S   -0.000030  -0.000039   0.000081   0.000004   0.000001
   56  H 16  S   -0.006901  -0.000047  -0.000034  -0.000104  -0.000083
   57  H 17  S    0.000080   0.000020  -0.006996  -0.000170  -0.000166
   58  H 18  S   -0.000588  -0.000193   0.000180  -0.000069  -0.000021
   59  H 19  S   -0.000113   0.000026  -0.000124   0.000173   0.000004
   60  H 20  S   -0.000055   0.000006   0.000037  -0.006793   0.000001

                     11         12         13         14         15
                   -1.3082    -1.0894    -1.0066    -0.9548    -0.9322
                     A          A          A          A          A   
    1  C  1  S   -0.000649  -0.048805  -0.116729   0.082359  -0.052432
    2  C  1  S    0.001538   0.128938   0.314826  -0.226683   0.148991
    3  C  1  X    0.000134   0.000206  -0.064978   0.044942   0.025226
    4  C  1  Y    0.000421   0.013034   0.000192   0.006597   0.002926
    5  C  1  Z    0.000258   0.020168   0.057574  -0.020489  -0.006276
    6  C  2  S   -0.000572  -0.042586  -0.145638   0.078574   0.015610
    7  C  2  S    0.001255   0.106942   0.381555  -0.210552  -0.043832
    8  C  2  X    0.000277   0.020274   0.038980  -0.025402   0.036860
    9  C  2  Y    0.000438   0.014483   0.033759   0.005762  -0.034066
   10  C  2  Z    0.000050  -0.007270  -0.019301   0.038489  -0.055210
   11  C  3  S   -0.001498  -0.036369  -0.105718   0.008577   0.086930
   12  C  3  S    0.004148   0.100285   0.296613  -0.021264  -0.253848
   13  C  3  X    0.001409   0.013335  -0.000828   0.021237   0.008697
   14  C  3  Y    0.001106  -0.004864  -0.045966   0.045099  -0.011687
   15  C  3  Z   -0.000290  -0.012120  -0.039753   0.026265  -0.001136
   16  C  4  S   -0.024124  -0.082449  -0.018830  -0.114232   0.103121
   17  C  4  S    0.059705   0.218943   0.055496   0.322041  -0.299049
   18  C  4  X    0.009379   0.043529  -0.027115   0.046763   0.010343
   19  C  4  Y    0.024573  -0.026169  -0.023390  -0.017184  -0.060583
   20  C  4  Z   -0.015220  -0.015937   0.013913   0.017725   0.010533
   21  C  5  S   -0.006142  -0.117801  -0.005516  -0.116022  -0.049622
   22  C  5  S    0.014185   0.298225   0.016255   0.317995   0.131297
[...]
 19   H            X  0.00573537  0.00058606 -0.00296222 -0.04771230 -0.01192081
                   Y -0.05767288 -0.00240066  0.02206275 -0.10619864 -0.01947975
                   Z  0.03322823  0.00089568 -0.00153943  0.14171444  0.03065078
 20   H            X -0.00000005  0.00034163 -0.00033480 -0.04756759 -0.04882424
                   Y  0.01338850  0.00022899 -0.00153048 -0.02363949  0.04062388
                   Z -0.01265583  0.00058592  0.02034344  0.12859029  0.07709429

 TRANS. SAYVETZ    X -0.00000210 -0.00000027 -0.00000057 -0.00000071 -0.00000187
                   Y -0.00000050 -0.00000088 -0.00000027 -0.00000041  0.00000091
                   Z  0.00000252 -0.00000051  0.00000067  0.00000056  0.00000001
               TOTAL  0.00000332  0.00000105  0.00000092  0.00000099  0.00000208

   ROT. SAYVETZ    X -0.00135366  0.00286584 -0.00052689  0.00027916  0.00055214
                   Y  0.00512209 -0.00287628 -0.00897525  0.00094269  0.00025220
                   Z -0.00211593 -0.00335014  0.01066993 -0.00173030 -0.00157529
               TOTAL  0.00570485  0.00526398  0.01395278  0.00199011  0.00168819

                           51          52          53          54          55
       FREQUENCY:      3634.33     3638.71     3689.50     3697.30     3699.05  
        SYMMETRY:         A           A           A           A           A   
    REDUCED MASS:      1.06235     1.06452     1.09084     1.09393     1.09619
    IR INTENSITY:      0.02534     0.10634     0.12802     0.07674     0.09942

  1   C            X  0.01466728  0.00917706 -0.00216161  0.00011218 -0.00405557
                   Y -0.02338381 -0.01567255  0.00130937  0.00032188 -0.00025400
                   Z -0.04923794 -0.03370844  0.00583810 -0.00214532  0.01089371
  2   C            X -0.00071775 -0.00362559  0.00336967 -0.00268596  0.01705820
                   Y  0.00721446  0.00380083  0.01077469 -0.00960241  0.05598451
                   Z -0.00696858  0.00546906 -0.01070413  0.00901002 -0.05541073
  3   C            X -0.02153914  0.03447604  0.00267057 -0.00098567  0.00302898
                   Y  0.02961269 -0.04612450 -0.00561701  0.00306001 -0.01057221
                   Z  0.00134029 -0.00100488  0.00112320  0.00039035  0.00316517
  4   C            X  0.00078569 -0.00118986  0.01617238  0.01567961 -0.00257450
                   Y -0.00079952  0.00064993 -0.01664404 -0.01742781  0.00238996
                   Z -0.00332931  0.00032039 -0.05225268 -0.04709089  0.00610862
  5   C            X  0.00029734  0.00022014  0.00287124 -0.00320455 -0.00049640
                   Y -0.00247021  0.00014683 -0.02654239  0.00826785  0.00191372
                   Z  0.00289939 -0.00098784  0.03449943 -0.00348492 -0.00177009
  6   C            X -0.00191174  0.00091196 -0.02131868  0.03399057  0.01058872
                   Y  0.00277664 -0.00024280  0.02931569 -0.04488184 -0.01449219
                   Z  0.00031512  0.00093066  0.00188728 -0.00603437 -0.00265759
  7   C            X  0.00069769  0.00004220  0.00460376 -0.01290183 -0.00590361
                   Y -0.00008423  0.00013858 -0.00370178  0.00910776  0.00392694
                   Z -0.00033402  0.00007359 -0.00739489  0.02111254  0.00981136
  8   C            X -0.00003789  0.00000276 -0.00109465  0.00308742  0.00135981
                   Y -0.00040186  0.00019350 -0.00280722  0.00912935  0.00398901
                   Z  0.00042360 -0.00006687  0.00330753 -0.01040335 -0.00461554
  9   C            X  0.00026365 -0.00018556 -0.00037426 -0.00063638 -0.00003477
                   Y -0.00006616 -0.00012727 -0.00077856 -0.00109772  0.00004999
                   Z  0.00030238 -0.00008483  0.00098177  0.00177268  0.00011063
 10   O            X -0.00001224 -0.00002103  0.00001230  0.00002328 -0.00000566
                   Y  0.00001661  0.00001211  0.00004121  0.00021580 -0.00001118
                   Z -0.00001964 -0.00001525 -0.00006711 -0.00017894 -0.00001835
 11   H            X -0.12982905 -0.08656829  0.01206482 -0.00264047  0.01088132
                   Y  0.55568708  0.36943078 -0.04348625  0.00890955 -0.03828409
                   Z  0.07646885  0.05038423 -0.00578085  0.00144390 -0.00561788
 12   H            X -0.00724112 -0.00398498  0.00254188  0.00001198 -0.00052491
                   Y -0.29888049 -0.20029073  0.03265657 -0.01274501  0.05330719
                   Z  0.46313835  0.31244904 -0.04822170  0.01923485 -0.07936000
 13   H            X -0.02957791  0.00448597 -0.03192363  0.02817141 -0.16945665
                   Y -0.10807965  0.02327178 -0.11806918  0.10316860 -0.62052574
                   Z  0.11079738 -0.02039162  0.12027123 -0.10486928  0.63075984
 14   H            X  0.01692786 -0.02847327 -0.00077665  0.00057005 -0.00406712
                   Y -0.24570496  0.38291152  0.04210806 -0.01478736  0.06240180
                   Z  0.27407775 -0.42695313 -0.04557327  0.01659406 -0.07329858
 15   H            X  0.23028349 -0.35360322 -0.02467858  0.00957578 -0.02022634
                   Y -0.06952517  0.10660382  0.00871099 -0.00356210  0.00795635
                   Z -0.27789341  0.42764155  0.03211157 -0.01302862  0.02627767
 16   H            X -0.00956762  0.00130238 -0.17748557 -0.16187280  0.02180678
                   Y  0.01339971 -0.00190439  0.20156852  0.18341310 -0.02376677
                   Z  0.03862498 -0.00536183  0.59225446  0.53516055 -0.06970700
 17   H            X -0.00346519  0.00071638 -0.04403535  0.00847950  0.00300272
                   Y  0.02843297 -0.00609203  0.31529785 -0.05745872 -0.02186234
                   Z -0.03544321  0.00771000 -0.39672642  0.06992965  0.02724063
 18   H            X  0.02541292 -0.00822403  0.25195611 -0.38672903 -0.12130880
                   Y -0.03058435  0.00956904 -0.33004541  0.50702786  0.16027670
                   Z -0.00255052  0.00060740 -0.03336752  0.05319773  0.01746438
 19   H            X -0.00436133  0.00072515 -0.05202529  0.14551419  0.06625806
                   Y  0.00237007 -0.00058308  0.03031710 -0.08373339 -0.03816426
                   Z  0.00808585 -0.00105751  0.09013977 -0.25030024 -0.11414889
 20   H            X  0.00085216 -0.00028155  0.00774640 -0.02789050 -0.01215821
                   Y  0.00500021 -0.00159162  0.03521344 -0.12019958 -0.05238996
                   Z -0.00501268  0.00121750 -0.03358560  0.11452136  0.04985230

 TRANS. SAYVETZ    X -0.00000012 -0.00000026 -0.00000101  0.00000031  0.00000006
                   Y -0.00000010  0.00000055 -0.00000056  0.00000040 -0.00000022
                   Z -0.00000110  0.00000106  0.00000013  0.00000035 -0.00000056
               TOTAL  0.00000111  0.00000123  0.00000116  0.00000062  0.00000061

   ROT. SAYVETZ    X  0.00026525 -0.00014058 -0.00032497  0.00003849 -0.00006101
                   Y -0.00040698 -0.00059611  0.00067915  0.00082277  0.00012784
                   Z -0.00013234  0.00095429  0.00017289 -0.00093101 -0.00002812
               TOTAL  0.00050349  0.00113392  0.00077249  0.00124307  0.00014441

                           56          57          58          59          60
       FREQUENCY:      3704.98     3715.88     3736.10     3785.87     3787.67  
        SYMMETRY:         A           A           A           A           A   
    REDUCED MASS:      1.09180     1.10090     1.10598     1.11706     1.11746
    IR INTENSITY:      0.49444     0.07552     0.06447     0.00065     0.01700

  1   C            X -0.00072869  0.00045828  0.00007102  0.01061509 -0.00660223
                   Y  0.00060231 -0.00121017 -0.00028913 -0.07204177  0.04379684
                   Z  0.00061113  0.00100702  0.00019308  0.03477306 -0.02052094
  2   C            X  0.00181552  0.00162682  0.00002554 -0.00073320  0.00117080
                   Y  0.00526439  0.00474770  0.00008037 -0.00008818  0.00389220
                   Z -0.00538681 -0.00451711 -0.00004902  0.00123619 -0.00330044
  3   C            X  0.00022934 -0.00002609  0.00004663  0.01679490  0.02829327
                   Y -0.00046268 -0.00055177 -0.00020740  0.01341863  0.02154428
                   Z  0.00062424  0.00140671  0.00022593 -0.04381108 -0.07245160
  4   C            X  0.00496147  0.01075012  0.00109374  0.00009779 -0.00005476
                   Y -0.00580775 -0.01222583 -0.00103719 -0.00016621 -0.00042369
                   Z -0.01376560 -0.02510973 -0.00258628  0.00001212 -0.00041516
  5   C            X -0.00298543 -0.00812171 -0.00065747 -0.00005878 -0.00010552
                   Y  0.01265701  0.04195135  0.00352404 -0.00004890  0.00039703
                   Z -0.01329403 -0.05560275 -0.00467659  0.00027322 -0.00057156
  6   C            X  0.01480247 -0.02371026 -0.00318894  0.00029814 -0.00060666
                   Y -0.02178518  0.03233910  0.00600707 -0.00008406  0.00036248
                   Z -0.00017692  0.00776267 -0.00037692 -0.00025590  0.00016468
  7   C            X  0.03075570 -0.00165041 -0.02456498  0.00003868 -0.00010463
                   Y -0.01674745 -0.00098270  0.02048888 -0.00023383  0.00030527
                   Z -0.05310627  0.00386244  0.03827355 -0.00043344  0.00039992
  8   C            X -0.00816260  0.00173741 -0.00870079 -0.00005311  0.00015032
                   Y -0.02640015  0.00872826 -0.05753071 -0.00007555 -0.00007661
                   Z  0.02890540 -0.00775774  0.04587271  0.00000803 -0.00000228
  9   C            X  0.00057935 -0.00025831  0.00116635  0.00004589  0.00014311
                   Y  0.00002623 -0.00084290 -0.00071209  0.00006307  0.00002830
                   Z -0.00119838  0.00088452 -0.00196108  0.00008271  0.00009715
 10   O            X -0.00005203 -0.00001544 -0.00016255  0.00001766  0.00002570
                   Y -0.00008959  0.00017181  0.00023046 -0.00000345  0.00000017
                   Z  0.00013842 -0.00006132  0.00020918 -0.00000127  0.00001151
 11   H            X  0.00196058 -0.00170905 -0.00029490 -0.12528759  0.07585740
                   Y -0.00709333  0.00613200  0.00177572  0.53937351 -0.32740824
                   Z -0.00095546  0.00077833  0.00017331  0.07775354 -0.04675490
 12   H            X -0.00048639 -0.00022745 -0.00040077  0.00505672 -0.00346134
                   Y  0.00202588  0.00748397  0.00195960  0.30994555 -0.18573690
                   Z -0.00347089 -0.01076795 -0.00299360 -0.48940516  0.29323780
 13   H            X -0.01641971 -0.01422406 -0.00005781  0.00502547 -0.01306789
                   Y -0.05991541 -0.05212619 -0.00061706  0.00686429 -0.04516876
                   Z  0.06072080  0.05301186  0.00057202 -0.01195341  0.04344576
 14   H            X -0.00014561 -0.00044225  0.00014327  0.01923507  0.03099922
                   Y  0.00457497  0.00796767  0.00229221 -0.22807887 -0.37424742
                   Z -0.00570281 -0.00973872 -0.00248273  0.25441774  0.41658720
 15   H            X -0.00035836  0.00327403 -0.00005484 -0.21870788 -0.36251595
                   Y -0.00005375 -0.00125442 -0.00002934  0.06736587  0.11098809
                   Z  0.00022901 -0.00433708  0.00010914  0.26123269  0.43320906
 16   H            X -0.04732264 -0.08751023 -0.00776785 -0.00075870 -0.00210245
                   Y  0.05328414  0.09855658  0.00891118  0.00126322  0.00323000
                   Z  0.15642283  0.28494962  0.02557815  0.00315077  0.00870715
 17   H            X  0.01983360  0.06934709  0.00591096 -0.00013050  0.00061479
                   Y -0.13087958 -0.47332759 -0.03760204  0.00134889 -0.00471757
                   Z  0.16381620  0.59806843  0.04741275 -0.00187563  0.00581671
 18   H            X -0.17677094  0.26182959  0.04022448 -0.00480562  0.00577934
                   Y  0.23370939 -0.34517759 -0.05433362  0.00537946 -0.00703214
                   Z  0.02241680 -0.03771319 -0.00488300  0.00047965 -0.00061345
 19   H            X -0.34937035  0.02086091  0.24723052 -0.00224688  0.00234034
                   Y  0.19622334 -0.01037278 -0.14084122  0.00134407 -0.00130806
                   Z  0.59941984 -0.03590450 -0.42281864  0.00342040 -0.00352610
 20   H            X  0.07854531 -0.02241194  0.13091938  0.00031492 -0.00017963
                   Y  0.33647992 -0.09734118  0.56817628  0.00080934 -0.00000887
                   Z -0.31893743  0.09212110 -0.53599156 -0.00057535 -0.00008931

 TRANS. SAYVETZ    X  0.00000050  0.00000015 -0.00000012  0.00000008  0.00000009
                   Y  0.00000026 -0.00000015  0.00000033 -0.00000001  0.00000008
                   Z -0.00000022  0.00000041  0.00000023  0.00000005 -0.00000002
               TOTAL  0.00000061  0.00000046  0.00000042  0.00000010  0.00000012

   ROT. SAYVETZ    X  0.00004106 -0.00016523 -0.00003506 -0.00015453  0.00068491
                   Y  0.00026308  0.00020667  0.00003109 -0.00028717 -0.00113920
                   Z -0.00038184  0.00025122  0.00006138  0.00065478 -0.00056659
               TOTAL  0.00046550  0.00036486  0.00007722  0.00073150  0.00144496

 REFERENCE ON SAYVETZ CONDITIONS - A. SAYVETZ, J.CHEM.PHYS., 7, 383-389(1939).

 NOTE - THE MODES J,K ARE ORTHONORMALIZED ACCORDING TO
 SUM ON I   M(I) * (X(I,J)*X(I,K) + Y(I,J)*Y(I,K) + Z(I,J)*Z(I,K)) = DELTA(J,K)

  MODE FREQ(CM**-1)  SYMMETRY  RED. MASS  IR INTENS.
     1    1105.038    A        9.337480    0.024509
     2       0.071    A        6.621363    0.000025
     3       0.007    A        6.702316    0.000000
     4       0.003    A        6.703261    0.000000
     5       1.678    A        4.852948    0.014699
     6      29.446    A        5.893003    0.016230
     7      35.862    A        4.148114    0.001099
     8     110.747    A        4.132669    0.028029
     9     202.433    A        3.552682    0.015150
    10     257.739    A        4.163685    0.029876
    11     373.630    A        5.303335    0.031103
    12     410.169    A        5.703579    0.169147
    13     456.160    A        1.990671    0.060281
    14     487.188    A        3.523122    0.073736
    15     497.132    A        4.520380    0.137211
    16     536.879    A        1.988726    0.234314
    17     570.910    A        2.521657    0.186552
    18     603.788    A        5.425289    0.018137
    19     674.644    A        5.938733    0.036254
    20     837.151    A        3.394397    0.044732
    21     852.862    A        4.080720    0.044598
    22     924.928    A        1.631677    1.208527
    23     935.606    A        1.774936    0.149462
    24     971.343    A        1.615406    0.876856
    25     995.128    A        1.365156    0.225087
    26    1023.970    A        1.418918    0.043265
    27    1085.001    A        1.839540    0.188620
    28    1122.434    A        2.888287    0.002564
    29    1171.617    A        1.971803    0.073742
    30    1201.741    A        1.125607    0.032711
    31    1209.691    A        1.271852    0.004297
    32    1228.772    A        1.502970    0.137831
    33    1260.354    A        1.270362    0.220968
    34    1278.543    A        1.151242    0.415712
    35    1305.189    A        1.232827    0.016437
    36    1328.602    A        1.261007    0.107579
    37    1355.725    A        1.266860    0.029882
    38    1358.665    A        1.122784    0.019688
    39    1419.225    A        1.832343    0.645173
    40    1471.300    A        1.330539    0.100965
    41    1484.860    A        1.781614    0.004816
    42    1600.517    A        1.604068    0.151413
    43    1639.646    A        1.714687    0.150472
    44    1668.161    A        1.505960    0.060378
    45    1727.133    A        2.569079    0.327420
    46    1758.601    A        1.891725    0.050057
    47    1811.297    A        1.277758    0.196595
    48    1863.188    A        2.593647    0.054760
    49    2004.911    A        7.008711    0.061462
    50    2075.450    A       10.553052    1.845788
    51    3634.328    A        1.062355    0.025339
    52    3638.708    A        1.064525    0.106342
    53    3689.497    A        1.090837    0.128021
    54    3697.304    A        1.093934    0.076742
    55    3699.047    A        1.096187    0.099416
    56    3704.978    A        1.091797    0.494441
    57    3715.879    A        1.100902    0.075518
    58    3736.100    A        1.105983    0.064467
    59    3785.869    A        1.117058    0.000648
    60    3787.666    A        1.117465    0.016999

     -------------------------------
     THERMOCHEMISTRY AT T=  298.15 K
     -------------------------------

 USING IDEAL GAS, RIGID ROTOR, HARMONIC NORMAL MODE APPROXIMATIONS.
 P=  1.01325E+05 PASCAL.
 ALL FREQUENCIES ARE SCALED BY   1.00000
 THE MOMENTS OF INERTIA ARE (IN AMU*BOHR**2)
            865.18519          1321.61149          1660.65576
 THE ROTATIONAL SYMMETRY NUMBER IS  1.0
 THE ROTATIONAL CONSTANTS ARE (IN GHZ)
      2.08405     1.36431     1.08577
   1 IMAGINARY FREQUENCY VIBRATION(S) IS(ARE) EXCLUDED
     FROM THE FOLLOWING THERMOCHEMICAL ANALYSIS.
      8 -     60 VIBRATIONAL MODES ARE USED IN THERMOCHEMISTRY.
 THE HARMONIC ZERO POINT ENERGY IS (SCALED BY   1.000)
        0.191918 HARTREE/MOLECULE    42121.201863 CM**-1/MOLECULE 
      120.430680 KCAL/MOL              503.881966 KJ/MOL

               Q               LN Q
 ELEC.     1.00000E+00       0.000000
 TRANS.    6.10192E+07      17.926699
 ROT.      4.93273E+05      13.108819
 VIB.      1.47791E+01       2.693217
 TOT.      4.44839E+14      33.728734

              E         H         G         CV        CP        S
           KJ/MOL    KJ/MOL    KJ/MOL   J/MOL-K   J/MOL-K   J/MOL-K
 ELEC.      0.000     0.000     0.000     0.000     0.000     0.000
 TRANS.     3.718     6.197   -44.439    12.472    20.786   169.836
 ROT.       3.718     3.718   -32.496    12.472    12.472   121.464
 VIB.     515.201   515.201   497.206    94.218    94.218    60.355
 TOTAL    522.637   525.116   420.270   119.161   127.475   351.655
 VIB. THERMAL CORRECTION E(T)-E(0) = H(T)-H(0) =     11318.598 J/MOL

              E         H         G         CV        CP        S
         KCAL/MOL  KCAL/MOL  KCAL/MOL CAL/MOL-K CAL/MOL-K CAL/MOL-K
 ELEC.      0.000     0.000     0.000     0.000     0.000     0.000
 TRANS.     0.889     1.481   -10.621     2.981     4.968    40.592
 ROT.       0.889     0.889    -7.767     2.981     2.981    29.031
 VIB.     123.136   123.136   118.835    22.519    22.519    14.425
 TOTAL    124.913   125.506   100.447    28.480    30.467    84.048
 VIB. THERMAL CORRECTION E(T)-E(0) = H(T)-H(0) =      2705.210 CAL/MOL

     *******************************************************
     * THIS IS NOT A STATIONARY POINT ON THE MOLECULAR PES *
     *     THE VIBRATIONAL ANALYSIS IS NOT VALID !!!       *
     *******************************************************
 ......END OF NORMAL COORDINATE ANALYSIS......
 STEP CPU TIME =     0.01 TOTAL CPU TIME =        221.2 (      3.7 MIN)
 TOTAL WALL CLOCK TIME=        222.4 SECONDS, CPU UTILIZATION IS    99.46%
               580000  WORDS OF DYNAMIC MEMORY USED
 EXECUTION OF GAMESS TERMINATED NORMALLY Mon Nov 15 03:08:57 2021
 DDI: 263640 bytes (0.3 MB / 0 MWords) used by master data server.

 ----------------------------------------
 CPU timing information for all processes
 ========================================
 0: 216.910 + 4.350 = 221.261
 ----------------------------------------
 ddikick.x: exited gracefully.
----- accounting info -----
Files used on the master node chemcompute-node-0.novalocal were:
-rw-r--r--. 1 chemcomp chemcomp     1348 Nov 15 03:05 /scratch/306627/342641.F05
-rw-rw-r--. 1 chemcomp chemcomp 17821584 Nov 15 03:08 /scratch/306627/342641.F08
-rw-rw-r--. 1 chemcomp chemcomp 85196800 Nov 15 03:08 /scratch/306627/342641.F10
-rw-rw-r--. 1 chemcomp chemcomp   878880 Nov 15 03:08 /scratch/306627/342641.F18
Mon Nov 15 03:09:01 UTC 2021
0.138u 0.111s 3:46.47 0.1%	0+0k 8+216io 0pf+0w
Finishing Up...
Looking for IR data...
Looking for Raman data...
vibramans not found
Looking for thermodynamics data...
Looking for UV-Vis data...
306627
