----- GAMESS execution script 'rungms' -----
This job is running on host chemcompute-node-0.novalocal
under operating system Linux at Mon Nov 15 16:05:50 UTC 2021
SLURM has assigned the following compute nodes to this run:
chemcompute-node-0
Available scratch disk space (Kbyte units) at beginning of the job is
Filesystem     1K-blocks     Used Available Use% Mounted on
/dev/sda1       62903276 16916964  45986312  27% /
GAMESS temporary binary files will be written to /scratch/306970
GAMESS supplementary output files will be written to /data/slurm/343004
Copying input file 343004.inp to your run's scratch directory...
The generated host list is
chemcompute-node-0.novalocal

 Distributed Data Interface kickoff program.
 Initiating 1 compute processes on 1 nodes to run the following command:
 /data/gamess-2019R1-ddi/gamess.00.x 343004 

          ******************************************************
          *         GAMESS VERSION = 30 JUN 2019 (R1)          *
          *             FROM IOWA STATE UNIVERSITY             *
          * M.W.SCHMIDT, K.K.BALDRIDGE, J.A.BOATZ, S.T.ELBERT, *
          *   M.S.GORDON, J.H.JENSEN, S.KOSEKI, N.MATSUNAGA,   *
          *          K.A.NGUYEN, S.J.SU, T.L.WINDUS,           *
          *       TOGETHER WITH M.DUPUIS, J.A.MONTGOMERY       *
          *         J.COMPUT.CHEM.  14, 1347-1363(1993)        *
          **************** 64 BIT LINUX VERSION ****************

  SINCE 1993, STUDENTS AND POSTDOCS WORKING AT IOWA STATE UNIVERSITY
  AND ALSO IN THEIR VARIOUS JOBS AFTER LEAVING ISU HAVE MADE IMPORTANT
  CONTRIBUTIONS TO THE CODE:
     IVANA ADAMOVIC, CHRISTINE AIKENS, YURI ALEXEEV, POOJA ARORA,
     ANDREY ASADCHEV, ROB BELL, PRADIPTA BANDYOPADHYAY, JONATHAN BENTZ,
     COLLEEN BERTONI, BRETT BODE, KURT BRORSEN, CALEB CARLIN, GALINA CHABAN,
     WEI CHEN, CHEOL HO CHOI, PAUL DAY, ALBERT DEFUSCO, NUWAN DESILVA,
     TIM DUDLEY, DMITRI FEDOROV, ALEX FINDLATER, GRAHAM FLETCHER, 
     MARK FREITAG, KURT GLAESEMANN, ANASTASIA GUNINA,
     DAN KEMP, GRANT MERRILL, NORIYUKI MINEZAWA, JONATHAN MULLIN,
     TAKESHI NAGATA, SEAN NEDD, HEATHER NETZLOFF, BOSILJKA NJEGIC, RYAN OLSON,
     MIKE PAK, BUU PHAM,
     SPENCER PRUITT, LUKE ROSKOP, JIM SHOEMAKER, LYUDMILA SLIPCHENKO,
     TONY SMITH, SAROM SOK LEANG, JIE SONG, TETSUYA TAKETSUGU, SIMON WEBB,
     PENG XU, SOOHAENG YOO, FEDERICO ZAHARIEV

  ADDITIONAL CODE HAS BEEN PROVIDED BY COLLABORATORS IN OTHER GROUPS:
     IOWA STATE UNIVERSITY:
          JOE IVANIC, AARON WEST, LAIMUTIS BYTAUTAS, KLAUS RUEDENBERG
     UNIVERSITY OF TOKYO: KIMIHIKO HIRAO, TAKAHITO NAKAJIMA,
          TAKAO TSUNEDA, MUNEAKI KAMIYA, SUSUMU YANAGISAWA,
          KIYOSHI YAGI, MAHITO CHIBA, SEIKEN TOKURA, NAOAKI KAWAKAMI
     UNIVERSITY OF AARHUS: FRANK JENSEN
     UNIVERSITY OF IOWA: VISVALDAS KAIRYS, HUI LI
     NATIONAL INST. OF STANDARDS AND TECHNOLOGY: WALT STEVENS, DAVID GARMER
     UNIVERSITY OF PISA: BENEDETTA MENNUCCI, JACOPO TOMASI
     UNIVERSITY OF MEMPHIS: HENRY KURTZ, PRAKASHAN KORAMBATH
     UNIVERSITY OF ALBERTA: TOBY ZENG, MARIUSZ KLOBUKOWSKI
     UNIVERSITY OF NEW ENGLAND: MARK SPACKMAN
     MIE UNIVERSITY: HIROAKI UMEDA
     NAT. INST. OF ADVANCED INDUSTRIAL SCIENCE AND TECHNOLOGY: KAZUO KITAURA
     MICHIGAN STATE UNIVERSITY:
          KAROL KOWALSKI, MARTA WLOCH, JEFFREY GOUR, JESSE LUTZ,
          WEI LI, JUN SHEN, J. EMILIANO DEUSTUA, PIOTR PIECUCH
     UNIVERSITY OF MINNESOTA:
          YINAN SHU
     UNIVERSITY OF SILESIA: MONIKA MUSIAL, STANISLAW KUCHARSKI
     FACULTES UNIVERSITAIRES NOTRE-DAME DE LA PAIX:
          OLIVIER QUINET, BENOIT CHAMPAGNE
     UNIVERSITY OF CALIFORNIA - SANTA BARBARA: BERNARD KIRTMAN
     INSTITUTE FOR MOLECULAR SCIENCE:
          KAZUYA ISHIMURA, MICHIO KATOUDA, AND SHIGERU NAGASE
     UNIVERSITY OF NOTRE DAME: ANNA POMOGAEVA, DAN CHIPMAN
     KYUSHU UNIVERSITY:
          HARUYUKI NAKANO,
          FENG LONG GU, JACEK KORCHOWIEC, MARCIN MAKOWSKI, AND YURIKO AOKI,
          HIROTOSHI MORI AND EISAKU MIYOSHI
     PENNSYLVANIA STATE UNIVERSITY:
          TZVETELIN IORDANOV, CHET SWALINA, JONATHAN SKONE,
          SHARON HAMMES-SCHIFFER
     WASEDA UNIVERSITY:
          MASATO KOBAYASHI, TOMOKO AKAMA, TSUGUKI TOUMA,
          TAKESHI YOSHIKAWA, YASUHIRO IKABATA, JUNJI SEINO,
          YUYA NAKAJIMA, HIROMI NAKAI
     NANJING UNIVERSITY: SHUHUA LI
     UNIVERSITY OF NEBRASKA:
          PEIFENG SU, DEJUN SI, NANDUN THELLAMUREGE, YALI WANG, HUI LI
     UNIVERSITY OF ZURICH: ROBERTO PEVERATI, KIM BALDRIDGE
     N. COPERNICUS UNIVERSITY AND JACKSON STATE UNIVERSITY:
          MARIA BARYSZ
     UNIVERSITY OF COPENHAGEN: Jimmy Kromann, CASPER STEINMANN
     TOKYO INSTITUTE OF TECHNOLOGY: HIROYA NAKATA
     NAGOYA UNIVERSITY: YOSHIO NISHIMOTO, STEPHAN IRLE
     MOSCOW STATE UNIVERSITY: VLADIMIR MIRONOV
     A.N.NESMEYANOV INSTITUTE OF ORGANOELEMENT COMPOUNDS OF RUSSIAN ACADEMY OF SCIENCES:
          IGOR S. GERASIMOV

 EXECUTION OF GAMESS BEGUN Mon Nov 15 16:05:50 2021

            ECHO OF THE FIRST FEW INPUT CARDS -
 INPUT CARD>!File created by the GAMESS Input Deck Generator Plugin for Avogadro            
 INPUT CARD> $BASIS GBASIS=STO NGAUSS=3 $END                                                
 INPUT CARD> $CONTRL SCFTYP=RHF RUNTYP=OPTIMIZE NZVAR=1 mult=1  ICHARG=0 $END               
 INPUT CARD> $STATPT hssend=.t. OPTTOL=0.0005 NSTEP=50 $END                                 
 INPUT CARD> $STATPT HESS=calc ihrep=5 $END                                                 
 INPUT CARD> $FORCE nvib=2 $END                                                             
 INPUT CARD> $ZMAT DLC=.t. auto=.t. nonvdw(1)=4,17,5,18,17,18,4,5 $END                      
 INPUT CARD> $ZMAT IFZMAT(1)=1,4,17,1,5,18,1,17,18 fvalue(1)=2.08,2.01,1.98 $END            
 INPUT CARD>                                                                                
 INPUT CARD> $DATA                                                                          
 INPUT CARD>Title                                                                           
 INPUT CARD>C1                                                                              
 INPUT CARD>C     6.0    -0.36849     1.04031     0.45067                                   
 INPUT CARD>C     6.0    -1.00903     0.07761    -0.56164                                   
 INPUT CARD>C     6.0    -0.40777    -1.28646    -0.21009                                   
 INPUT CARD>C     6.0     0.94736     0.44256     0.70930                                   
 INPUT CARD>C     6.0     0.92523    -0.85603     0.34128                                   
 INPUT CARD>C     6.0     2.32572    -1.39112     0.32550                                   
 INPUT CARD>H     1.0    -0.92378     1.02072     1.41379                                   
 INPUT CARD>H     1.0    -0.33852     2.07874     0.05733                                   
 INPUT CARD>H     1.0    -0.62315     0.37350    -1.56108                                   
 INPUT CARD>H     1.0    -2.11645     0.11555    -0.63146                                   
 INPUT CARD>H     1.0    -0.38944    -2.00213    -1.05961                                   
 INPUT CARD>H     1.0    -0.97474    -1.71922     0.64231                                   
 INPUT CARD>H     1.0     1.68152     0.90689     1.42044                                   
 INPUT CARD>H     1.0     2.25244    -2.35582     0.86882                                   
 INPUT CARD>H     1.0     3.09077    -0.86523     0.94896                                   
 INPUT CARD>H     1.0     2.73128    -1.70804    -0.66210                                   
 INPUT CARD>B     5.0     2.39332     0.89289    -0.71552                                   
 INPUT CARD>H     1.0     1.31082    -0.51282    -1.60030                                   
 INPUT CARD>H     1.0     2.09866     2.00163    -1.02089                                   
 INPUT CARD>H     1.0     3.56862     0.74524    -0.70047                                   
 INPUT CARD> $END                                                                           
    1000000 WORDS OF MEMORY AVAILABLE

     BASIS OPTIONS
     -------------
     GBASIS=STO          IGAUSS=       3      POLAR=NONE    
     NDFUNC=       0     NFFUNC=       0     DIFFSP=       F
     NPFUNC=       0      DIFFS=       F     BASNAM=        


     RUN TITLE
     ---------
 Title                                                                           

 THE POINT GROUP OF THE MOLECULE IS C1      
 THE ORDER OF THE PRINCIPAL AXIS IS     0

 ATOM      ATOMIC                      COORDINATES (BOHR)
           CHARGE         X                   Y                   Z
 C           6.0    -0.6963451292        1.9659008423        0.8516428109
 C           6.0    -1.9067902134        0.1466616339       -1.0613457037
 C           6.0    -0.7705735660       -2.4310568942       -0.3970125328
 C           6.0     1.7902508117        0.8363171331        1.3403826431
 C           6.0     1.7484311756       -1.6176621373        0.6449256851
 C           6.0     4.3949735242       -2.6288356160        0.6151058090
 H           1.0    -1.7456910729        1.9288811102        2.6716757042
 H           1.0    -0.6397100414        3.9282489997        0.1083379909
 H           1.0    -1.1775827492        0.7058126564       -2.9500134449
 H           1.0    -3.9995105667        0.2183578379       -1.1932863722
 H           1.0    -0.7359348887       -3.7834770918       -2.0023725538
 H           1.0    -1.8419915093       -3.2488547126        1.2137898992
 H           1.0     3.1776120429        1.7137736010        2.6842423820
 H           1.0     4.2564944038       -4.4518542764        1.6418317327
 H           1.0     5.8407083911       -1.6350476164        1.7932743733
 H           1.0     5.1613707957       -3.2277275761       -1.2511875765
 B           5.0     4.5227190009        1.6873174372       -1.3521367387
 H           1.0     2.4770906192       -0.9690892810       -3.0241284982
 H           1.0     3.9658923414        3.7825322288       -1.9292023636
 H           1.0     6.7437139543        1.4082993951       -1.3236963626

          INTERNUCLEAR DISTANCES (ANGS.)
          ------------------------------

                1 C          2 C          3 C          4 C          5 C     

   1 C       0.0000000    1.5368326 *  2.4190918 *  1.4682152 *  2.2982130 *
   2 C       1.5368326 *  0.0000000    1.5315965 *  2.3613426 *  2.3298734 *
   3 C       2.4190918 *  1.5315965 *  0.0000000    2.3814209 *  1.5053796 *
   4 C       1.4682152 *  2.3613426 *  2.3814209 *  0.0000000    1.3499128 *
   5 C       2.2982130 *  2.3298734 *  1.5053796 *  1.3499128 *  0.0000000  
   6 C       3.6312927    3.7502990    2.7874321 *  2.3258463 *  1.4993140 *
   7 H       1.1119042 *  2.1906729 *  2.8681583 *  2.0812833 *  2.8445221 *
   8 H       1.1108337 *  2.1993701 *  3.3765189    2.1807424 *  3.2078913  
   9 H       2.1346253 *  1.1114561 *  2.1510532 *  2.7615025 *  2.7437562 *
  10 H       2.2542295 *  1.1102672 *  2.2500605 *  3.3602834    3.3379647  
  11 H       3.3967375    2.2264735 *  1.1109472 *  3.3003918    2.2370506 *
  12 H       2.8318317 *  2.1631619 *  1.1114504 *  2.8934839 *  2.1084596 *
  13 H       2.2717385 *  3.4431680    3.4401374    1.1226368 *  2.2010106 *
  14 H       4.3101998    4.3133495    3.0633796    3.0918621    2.0710275 *
  15 H       3.9806853    4.4698120    3.7095301    2.5222922 *  2.2492050 *
  16 H       4.2895523    4.1459085    3.1993246    3.1125856    2.2348398 *
  17 B       3.0015540    3.5020488    3.5848474    2.0793531 *  2.5161152 *
  18 H       3.0722586    2.6094302 *  2.3419552 *  2.5256893 *  2.0090310 *
  19 H       3.0292663    3.6838160    4.2132083    2.5980278 *  3.3761910  
  20 H       4.1125448    4.6281620    4.4922105    2.9916669 *  3.2614137  

                6 C          7 H          8 H          9 H         10 H     

   1 C       3.6312927    1.1119042 *  1.1108337 *  2.1346253 *  2.2542295 *
   2 C       3.7502990    2.1906729 *  2.1993701 *  1.1114561 *  1.1102672 *
   3 C       2.7874321 *  2.8681583 *  3.3765189    2.1510532 *  2.2500605 *
   4 C       2.3258463 *  2.0812833 *  2.1807424 *  2.7615025 *  3.3602834  
   5 C       1.4993140 *  2.8445221 *  3.2078913    2.7437562 *  3.3379647  
   6 C       0.0000000    4.1905367    4.3829235    3.9203191    4.7873480  
   7 H       4.1905367    0.0000000    1.8171184 *  3.0592685    2.5347272 *
   8 H       4.3829235    1.8171184 *  0.0000000    2.3681446 *  2.7367100 *
   9 H       3.9203191    3.0592685    2.3681446 *  0.0000000    1.7778291 *
  10 H       4.7873480    2.5347272 *  2.7367100 *  1.7778291 *  0.0000000  
  11 H       3.1086905    3.9421883    4.2312702    2.4392028 *  2.7659437 *
  12 H       3.3318245    2.8469369 *  3.8950581    3.0590881    2.5084602 *
  13 H       2.6257832 *  2.6077940 *  2.7040457 *  3.8059782    4.3887457  
  14 H       1.1096002 *  4.6675891    5.1997031    4.6500129    5.2388653  
  15 H       1.1182863 *  4.4597630    4.6067335    4.6505865    5.5294482  
  16 H       1.1136745 *  5.0114782    4.9275708    4.0488485    5.1794696  
  17 B       2.5109747 *  3.9437868    3.0767657    3.1755045    4.5770459  
  18 H       2.3473684 *  4.0533838    3.4905935    2.1277550 *  3.6165839  
  19 H       3.6571949    4.0031231    2.6661490 *  3.2172756    4.6342320  
  20 H       2.6760884 *  4.9726896    4.1974071    4.2953202    5.7202529  

               11 H         12 H         13 H         14 H         15 H     

   1 C       3.3967375    2.8318317 *  2.2717385 *  4.3101998    3.9806853  
   2 C       2.2264735 *  2.1631619 *  3.4431680    4.3133495    4.4698120  
   3 C       1.1109472 *  1.1114504 *  3.4401374    3.0633796    3.7095301  
   4 C       3.3003918    2.8934839 *  1.1226368 *  3.0918621    2.5222922 *
   5 C       2.2370506 *  2.1084596 *  2.2010106 *  2.0710275 *  2.2492050 *
   6 C       3.1086905    3.3318245    2.6257832 *  1.1096002 *  1.1182863 *
   7 H       3.9421883    2.8469369 *  2.6077940 *  4.6675891    4.4597630  
   8 H       4.2312702    3.8950581    2.7040457 *  5.1997031    4.6067335  
   9 H       2.4392028 *  3.0590881    3.8059782    4.6500129    4.6505865  
  10 H       2.7659437 *  2.5084602 *  4.3887457    5.2388653    5.5294482  
  11 H       0.0000000    1.8218523 *  4.3476339    3.2899041    4.1759737  
  12 H       1.8218523 *  0.0000000    3.8154498    3.2971589    4.1655377  
  13 H       4.3476339    3.8154498    0.0000000    3.3579027    2.3127231 *
  14 H       3.2899041    3.2971589    3.3579027    0.0000000    1.7120392 *
  15 H       4.1759737    4.1655377    2.3127231 *  1.7120392 *  0.0000000  
  16 H       3.1596513    3.9288923    3.5038304    1.7299199 *  1.8533958 *
  17 B       4.0302968    4.4733264    2.2514840 *  3.6171946    2.5195071 *
  18 H       2.3240641 *  3.4217664    3.3582533    3.2217776    3.1290800  
  19 H       4.7140466    5.1045809    2.7078688 *  4.7520546    3.6171090  
  20 H       4.8314866    5.3402941    2.8435078 *  3.7163926    2.3542671 *

               16 H         17 B         18 H         19 H         20 H     

   1 C       4.2895523    3.0015540    3.0722586    3.0292663    4.1125448  
   2 C       4.1459085    3.5020488    2.6094302 *  3.6838160    4.6281620  
   3 C       3.1993246    3.5848474    2.3419552 *  4.2132083    4.4922105  
   4 C       3.1125856    2.0793531 *  2.5256893 *  2.5980278 *  2.9916669 *
   5 C       2.2348398 *  2.5161152 *  2.0090310 *  3.3761910    3.2614137  
   6 C       1.1136745 *  2.5109747 *  2.3473684 *  3.6571949    2.6760884 *
   7 H       5.0114782    3.9437868    4.0533838    4.0031231    4.9726896  
   8 H       4.9275708    3.0767657    3.4905935    2.6661490 *  4.1974071  
   9 H       4.0488485    3.1755045    2.1277550 *  3.2172756    4.2953202  
  10 H       5.1794696    4.5770459    3.6165839    4.6342320    5.7202529  
  11 H       3.1596513    4.0302968    2.3240641 *  4.7140466    4.8314866  
  12 H       3.9288923    4.4733264    3.4217664    5.1045809    5.3402941  
  13 H       3.5038304    2.2514840 *  3.3582533    2.7078688 *  2.8435078 *
  14 H       1.7299199 *  3.6171946    3.2217776    4.7520546    3.7163926  
  15 H       1.8533958 *  2.5195071 *  3.1290800    3.6171090    2.3542671 *
  16 H       0.0000000    2.6233390 *  2.0800184 *  3.7802896    2.5925264 *
  17 B       2.6233390 *  0.0000000    1.9825898 *  1.1871730 *  1.1846337 *
  18 H       2.0800184 *  1.9825898 *  0.0000000    2.6979375 *  2.7367992 *
  19 H       3.7802896    1.1871730 *  2.6979375 *  0.0000000    1.9600937 *
  20 H       2.5925264 *  1.1846337 *  2.7367992 *  1.9600937 *  0.0000000  

  * ... LESS THAN  3.000


     ATOMIC BASIS SET
     ----------------
 THE CONTRACTED PRIMITIVE FUNCTIONS HAVE BEEN UNNORMALIZED
 THE CONTRACTED BASIS FUNCTIONS ARE NOW NORMALIZED TO UNITY

  SHELL TYPE  PRIMITIVE        EXPONENT          CONTRACTION COEFFICIENT(S)

 C         

      1   S       1            71.6168373    0.154328967295
      1   S       2            13.0450963    0.535328142282
      1   S       3             3.5305122    0.444634542185

      2   L       4             2.9412494   -0.099967229187    0.155916274999
      2   L       5             0.6834831    0.399512826089    0.607683718598
      2   L       6             0.2222899    0.700115468880    0.391957393099

 C         

      3   S       7            71.6168373    0.154328967295
      3   S       8            13.0450963    0.535328142282
      3   S       9             3.5305122    0.444634542185

      4   L      10             2.9412494   -0.099967229187    0.155916274999
      4   L      11             0.6834831    0.399512826089    0.607683718598
      4   L      12             0.2222899    0.700115468880    0.391957393099

 C         

      5   S      13            71.6168373    0.154328967295
      5   S      14            13.0450963    0.535328142282
      5   S      15             3.5305122    0.444634542185

      6   L      16             2.9412494   -0.099967229187    0.155916274999
      6   L      17             0.6834831    0.399512826089    0.607683718598
      6   L      18             0.2222899    0.700115468880    0.391957393099

 C         

      7   S      19            71.6168373    0.154328967295
      7   S      20            13.0450963    0.535328142282
      7   S      21             3.5305122    0.444634542185

      8   L      22             2.9412494   -0.099967229187    0.155916274999
      8   L      23             0.6834831    0.399512826089    0.607683718598
      8   L      24             0.2222899    0.700115468880    0.391957393099

 C         

      9   S      25            71.6168373    0.154328967295
      9   S      26            13.0450963    0.535328142282
      9   S      27             3.5305122    0.444634542185

     10   L      28             2.9412494   -0.099967229187    0.155916274999
     10   L      29             0.6834831    0.399512826089    0.607683718598
     10   L      30             0.2222899    0.700115468880    0.391957393099

 C         

     11   S      31            71.6168373    0.154328967295
     11   S      32            13.0450963    0.535328142282
     11   S      33             3.5305122    0.444634542185

     12   L      34             2.9412494   -0.099967229187    0.155916274999
     12   L      35             0.6834831    0.399512826089    0.607683718598
     12   L      36             0.2222899    0.700115468880    0.391957393099

 H         

     13   S      37             3.4252509    0.154328967295
     13   S      38             0.6239137    0.535328142282
     13   S      39             0.1688554    0.444634542185

 H         

     14   S      40             3.4252509    0.154328967295
     14   S      41             0.6239137    0.535328142282
     14   S      42             0.1688554    0.444634542185

 H         

     15   S      43             3.4252509    0.154328967295
     15   S      44             0.6239137    0.535328142282
     15   S      45             0.1688554    0.444634542185

 H         

     16   S      46             3.4252509    0.154328967295
     16   S      47             0.6239137    0.535328142282
     16   S      48             0.1688554    0.444634542185

 H         

     17   S      49             3.4252509    0.154328967295
     17   S      50             0.6239137    0.535328142282
     17   S      51             0.1688554    0.444634542185

 H         

     18   S      52             3.4252509    0.154328967295
     18   S      53             0.6239137    0.535328142282
     18   S      54             0.1688554    0.444634542185

 H         

     19   S      55             3.4252509    0.154328967295
     19   S      56             0.6239137    0.535328142282
     19   S      57             0.1688554    0.444634542185

 H         

     20   S      58             3.4252509    0.154328967295
     20   S      59             0.6239137    0.535328142282
     20   S      60             0.1688554    0.444634542185

 H         

     21   S      61             3.4252509    0.154328967295
     21   S      62             0.6239137    0.535328142282
     21   S      63             0.1688554    0.444634542185

 H         

     22   S      64             3.4252509    0.154328967295
     22   S      65             0.6239137    0.535328142282
     22   S      66             0.1688554    0.444634542185

 B         

     23   S      67            48.7911132    0.154328967295
     23   S      68             8.8873622    0.535328142282
     23   S      69             2.4052670    0.444634542185

     24   L      70             2.2369561   -0.099967229187    0.155916274999
     24   L      71             0.5198205    0.399512826089    0.607683718598
     24   L      72             0.1690618    0.700115468880    0.391957393099

 H         

     25   S      73             3.4252509    0.154328967295
     25   S      74             0.6239137    0.535328142282
     25   S      75             0.1688554    0.444634542185

 H         

     26   S      76             3.4252509    0.154328967295
     26   S      77             0.6239137    0.535328142282
     26   S      78             0.1688554    0.444634542185

 H         

     27   S      79             3.4252509    0.154328967295
     27   S      80             0.6239137    0.535328142282
     27   S      81             0.1688554    0.444634542185

 TOTAL NUMBER OF BASIS SET SHELLS             =   27
 NUMBER OF CARTESIAN GAUSSIAN BASIS FUNCTIONS =   48
 NUMBER OF ELECTRONS                          =   54
 CHARGE OF MOLECULE                           =    0
 SPIN MULTIPLICITY                            =    1
 NUMBER OF OCCUPIED ORBITALS (ALPHA)          =   27
 NUMBER OF OCCUPIED ORBITALS (BETA )          =   27
 TOTAL NUMBER OF ATOMS                        =   20
 THE NUCLEAR REPULSION ENERGY IS      307.6278528811

     $CONTRL OPTIONS
     ---------------
 SCFTYP=RHF          RUNTYP=OPTIMIZE     EXETYP=RUN     
 MPLEVL=       0     CITYP =NONE         CCTYP =NONE         VBTYP =NONE    
 DFTTYP=NONE         TDDFT =NONE    
 MULT  =       1     ICHARG=       0     NZVAR =       1     COORD =UNIQUE  
 PP    =NONE         RELWFN=NONE         LOCAL =NONE         NUMGRD=       F
 ISPHER=      -1     NOSYM =       0     MAXIT =      30     UNITS =ANGS    
 PLTORB=       F     MOLPLT=       F     AIMPAC=       F     FRIEND=        
 NPRINT=       7     IREST =       0     GEOM  =INPUT   
 NORMF =       0     NORMP =       0     ITOL  =      20     ICUT  =       9
 INTTYP=BEST         GRDTYP=BEST         QMTTOL= 1.0E-06

     $SYSTEM OPTIONS
     ---------------
  REPLICATED MEMORY=     1000000 WORDS (ON EVERY NODE).
 DISTRIBUTED MEMDDI=           0 MILLION WORDS IN AGGREGATE,
 MEMDDI DISTRIBUTED OVER   1 PROCESSORS IS           0 WORDS/PROCESSOR.
 TOTAL MEMORY REQUESTED ON EACH PROCESSOR=     1000000 WORDS.
 TIMLIM=      525600.00 MINUTES, OR     365.0 DAYS.
 PARALL= F  BALTYP=  DLB     KDIAG=    0  COREFL= F
 MXSEQ2=     300 MXSEQ3=     150  mem10=         0

          ----------------
          PROPERTIES INPUT
          ----------------

     MOMENTS            FIELD           POTENTIAL          DENSITY
 IEMOM =       1   IEFLD =       0   IEPOT =       0   IEDEN =       0
 WHERE =COMASS     WHERE =NUCLEI     WHERE =NUCLEI     WHERE =NUCLEI  
 OUTPUT=BOTH       OUTPUT=BOTH       OUTPUT=BOTH       OUTPUT=BOTH    
 IEMINT=       0   IEFINT=       0                     IEDINT=       0
                                                       MORB  =       0
          EXTRAPOLATION IN EFFECT
          SOSCF IN EFFECT
 ORBITAL PRINTING OPTION: NPREO=     1    48     2     1

     -------------------------------
     INTEGRAL TRANSFORMATION OPTIONS
     -------------------------------
     NWORD  =            0
     CUTOFF = 1.0E-09     MPTRAN =       0
     DIRTRF =       F     AOINTS =DUP     

          ----------------------
          INTEGRAL INPUT OPTIONS
          ----------------------
 NOPK  =       1 NORDER=       0 SCHWRZ=       T


 -----------------------------------------------
  STATISTICS ON AUTOMATIC COORDINATE GENERATION 
 -----------------------------------------------
  NUMBER OF USER SPECIFIED BONDS                             4
  NUMBER OF BONDS                                           22
  NUMBER OF ANGLES                                          49
  NUMBER OF TORSIONS                                        69
  NUMBER OF EXTRA COORD.                                     0
  NUMBER OF EXTRA COORD. FOR CONSTRAINTS                     0
  NUMBER OF CONSTRAINED COORD.                               3

  TOTAL NUMBER OF PRIMITIVES                               140
 -----------------------------------------------

   --- ENCODED Z MATRIX ---
 COORD  TYPE   I   J   K   L   M   N
    1      1    4  17
    2      1    5  18
    3      1   17  18
    4      1    1   7
    5      1    1   2
    6      1    1   8
    7      1    1   4
    8      1    2   3
    9      1    2  10
   10      1    2   9
   11      1    3  12
   12      1    3  11
   13      1    3   5
   14      1    4  13
   15      1    4   5
   16      1    4   5
   17      1    5   6
   18      1    6  15
   19      1    6  14
   20      1    6  16
   21      1   17  20
   22      1   17  19
   23      2    1   2   3
   24      2    1   4   5
   25      2    1   4  17
   26      2    1   4  13
   27      2    1   2  10
   28      2    1   4   5
   29      2    1   2   9
   30      2    2   3   5
   31      2    2   3  11
   32      2    2   1   4
   33      2    2   1   7
   34      2    2   3  12
   35      2    2   1   8
   36      2    3   2   9
   37      2    3   2  10
   38      2    3   5  18
   39      2    3   5   6
   40      2    3   5   4
   41      2    3   5   4
   42      2    4   5   6
   43      2    4   1   7
   44      2    4   5  18
   45      2    4  17  19
   46      2    4  17  20
   47      2    4  17  18
   48      2    4   5   6
   49      2    4   5  18
   50      2    4   1   8
   51      2    5   4  17
   52      2    5   4  13
   53      2    5   4  13
   54      2    5   3  11
   55      2    5   3  12
   56      2    5   6  14
   57      2    5   6  15
   58      2    5   6  16
   59      2    5  18  17
   60      2    5   4  17
   61      2    6   5  18
   62      2    7   1   8
   63      2    9   2  10
   64      2   11   3  12
   65      2   13   4  17
   66      2   14   6  16
   67      2   14   6  15
   68      2   15   6  16
   69      2   18  17  19
   70      2   18  17  20
   71      2   19  17  20
   72      3    1   4   5  18
   73      3    1   2   3   5
   74      3    1   4   5   6
   75      3    1   2   3  11
   76      3    1   4   5   3
   77      3    1   2   3  12
   78      3    1   4  17  19
   79      3    1   4  17  20
   80      3    1   4  17  18
   81      3    2   1   4  17
   82      3    2   3   5  18
   83      3    2   1   4  13
   84      3    2   3   5   6
   85      3    2   3   5   4
   86      3    2   1   4   5
   87      3    3   2   1   4
   88      3    3   2   1   7
   89      3    3   2   1   8
   90      3    3   5   4  17
   91      3    3   5   4  13
   92      3    3   5   6  16
   93      3    3   5   6  14
   94      3    3   5   6  15
   95      3    3   5  18  17
   96      3    4  17  18   5
   97      3    4   5  18  17
   98      3    4   1   2  10
   99      3    4   5   6  16
  100      3    4   5   6  14
  101      3    4   5   6  15
  102      3    4   5   3  11
  103      3    4   5   3  12
  104      3    4   1   2   9
  105      3    5   4  17  18
  106      3    5   4   1   7
  107      3    5   4  17  20
  108      3    5   4  17  19
  109      3    5  18  17  19
  110      3    5  18  17  20
  111      3    5   4   1   8
  112      3    5   3   2   9
  113      3    5   3   2  10
  114      3    6   5   4  17
  115      3    6   5   4  13
  116      3    6   5  18  17
  117      3    6   5   3  11
  118      3    6   5   3  12
  119      3    7   1   2   9
  120      3    7   1   4  17
  121      3    7   1   2  10
  122      3    7   1   4  13
  123      3    8   1   4  17
  124      3    8   1   2  10
  125      3    8   1   4  13
  126      3    8   1   2   9
  127      3    9   2   3  12
  128      3    9   2   3  11
  129      3   10   2   3  12
  130      3   10   2   3  11
  131      3   11   3   5  18
  132      3   12   3   5  18
  133      3   13   4  17  18
  134      3   13   4  17  20
  135      3   13   4  17  19
  136      3   13   4   5  18
  137      3   14   6   5  18
  138      3   15   6   5  18
  139      3   16   6   5  18
  140      3   17   4   5  18

          INDEP./SYM. INTERNAL COORDINATES
          --------------------------------
 CRD  1=   1.0000 (  1)
 CRD  2=   1.0000 (  2)
 CRD  3=   1.0000 (  3)
 CRD  4=  -0.1769 ( 13) -0.3759 ( 17)  0.1320 ( 25)  0.1085 ( 27)  0.1178 ( 30)
          -0.1150 ( 34)  0.1093 ( 36) -0.1098 ( 43)  0.1115 ( 45) -0.3525 ( 56)
          -0.1485 ( 57)  0.1830 ( 58)  0.1021 ( 66)  0.1568 ( 67) -0.1067 ( 71)
           0.1384 ( 72)  0.2344 ( 74)  0.1853 ( 76) -0.1176 ( 82) -0.2229 ( 84)
          -0.1465 ( 85) -0.1163 ( 86)  0.1231 ( 94) -0.1133 (109) -0.1061 (111)
          -0.1211 (118)
 CRD  5=   0.1094 (  4)  0.2895 (  7)  0.1158 (  8) -0.2496 ( 13)  0.2524 ( 17)
           0.1019 ( 23) -0.1160 ( 29) -0.2293 ( 32)  0.1121 ( 33) -0.1601 ( 38)
           0.1181 ( 44)  0.1181 ( 49)  0.1607 ( 50) -0.1705 ( 51) -0.1665 ( 54)
           0.1058 ( 56)  0.1116 ( 57) -0.1127 ( 59) -0.1705 ( 60) -0.1038 ( 62)
           0.1011 ( 76) -0.1939 ( 81) -0.1360 ( 82) -0.1311 (109) -0.1253 (112)
          -0.1350 (120) -0.1073 (132)  0.1137 (137)  0.1062 (139)
 CRD  6=  -0.1016 (  4) -0.1338 (  7)  0.1105 (  8) -0.3410 ( 13) -0.1711 ( 21)
          -0.1824 ( 23)  0.1028 ( 29)  0.1588 ( 30)  0.1364 ( 37) -0.1248 ( 43)
          -0.2492 ( 45) -0.1767 ( 46) -0.1915 ( 55) -0.1680 ( 56)  0.2454 ( 58)
          -0.1131 ( 68)  0.2722 ( 71) -0.1120 ( 77) -0.1133 ( 87)  0.2483 (109)
          -0.2005 (110)
 CRD  7=  -0.2526 (  5) -0.1588 (  6) -0.3293 (  7)  0.1636 (  8) -0.1675 ( 23)
           0.2180 ( 32) -0.1315 ( 35)  0.1792 ( 36) -0.1351 ( 43)  0.3105 ( 57)
          -0.3724 ( 58)  0.1174 ( 62)  0.1314 ( 66) -0.1053 ( 78) -0.1215 ( 81)
          -0.1088 ( 82) -0.1070 ( 86) -0.1041 ( 95) -0.1157 (108)
 CRD  8=   0.3393 (  5)  0.1737 (  7)  0.1492 (  9)  0.1077 ( 10) -0.1148 ( 12)
          -0.1311 ( 13) -0.1389 ( 15) -0.1389 ( 16) -0.2827 ( 23)  0.1980 ( 27)
           0.1420 ( 29)  0.2349 ( 30) -0.1164 ( 31)  0.1618 ( 46) -0.1251 ( 54)
           0.2735 ( 56) -0.2652 ( 58) -0.1352 ( 63)  0.1002 ( 64) -0.1249 ( 67)
           0.1464 ( 68)  0.1011 ( 79)  0.1169 ( 82)  0.1757 (110)
 CRD  9=  -0.4981 (  5) -0.1011 (  9) -0.1512 ( 12) -0.2800 ( 13) -0.1124 ( 17)
          -0.1310 ( 18) -0.1401 ( 27) -0.1307 ( 33) -0.1031 ( 35)  0.3034 ( 56)
          -0.3496 ( 57) -0.1532 ( 66)  0.2000 ( 68) -0.1041 ( 77) -0.1065 ( 95)
          -0.1136 (106) -0.1029 (127)
 CRD 10=   0.6451 (  8)  0.1445 (  9)  0.1564 ( 12)  0.1003 ( 15)  0.1003 ( 16)
           0.1865 ( 31)  0.1401 ( 34)  0.1755 ( 37) -0.1056 ( 39) -0.1593 ( 57)
           0.1006 (102) -0.1220 (103) -0.1478 (118)  0.1041 (130)  0.1314 (131)
 CRD 11=  -0.2052 (  5)  0.2483 (  7)  0.1317 (  8) -0.1323 ( 15) -0.1323 ( 16)
           0.1259 ( 18) -0.1237 ( 19) -0.1734 ( 27) -0.1850 ( 33)  0.1792 ( 37)
           0.2097 ( 43)  0.1568 ( 46) -0.4004 ( 56)  0.2758 ( 57)  0.2019 ( 66)
          -0.1783 ( 68) -0.1463 ( 88)  0.1237 ( 98) -0.1089 (106)  0.1659 (110)
           0.1045 (116) -0.1274 (120)
 CRD 12=   0.1412 (  4)  0.1665 (  5) -0.1153 (  6) -0.1912 (  7) -0.1227 ( 12)
          -0.1057 ( 13)  0.1043 ( 20)  0.1046 ( 22) -0.1144 ( 23)  0.1513 ( 29)
           0.1820 ( 35)  0.1185 ( 43)  0.3180 ( 45) -0.2427 ( 50)  0.2098 ( 58)
          -0.1009 ( 68) -0.1341 ( 71) -0.1244 ( 78)  0.1079 ( 85) -0.1080 ( 89)
          -0.1183 ( 91)  0.1213 ( 98)  0.1784 (104) -0.1099 (108) -0.3506 (109)
          -0.1381 (111) -0.1113 (115) -0.1483 (123)
 CRD 13=   0.1004 (  6) -0.2174 ( 11)  0.1341 ( 12)  0.1256 ( 15)  0.1256 ( 16)
          -0.1284 ( 20) -0.1821 ( 27)  0.1662 ( 29) -0.1282 ( 31) -0.2124 ( 36)
           0.1225 ( 37)  0.2063 ( 54) -0.2744 ( 55) -0.1737 ( 58)  0.1181 ( 73)
          -0.1322 ( 77) -0.1058 ( 78)  0.1020 ( 86) -0.1434 ( 87) -0.1059 ( 88)
          -0.1013 ( 89)  0.1006 (101) -0.1255 (103) -0.1319 (109)  0.2506 (112)
           0.2147 (113) -0.1138 (118) -0.1229 (132)  0.1167 (137)  0.1319 (138)
           0.1117 (139)
 CRD 14=  -0.1006 (  9) -0.1843 ( 13) -0.3517 ( 14) -0.1222 ( 15) -0.1222 ( 16)
           0.1140 ( 17) -0.1398 ( 20) -0.1227 ( 21)  0.2326 ( 22)  0.1004 ( 35)
           0.1820 ( 45) -0.1625 ( 46) -0.1317 ( 52) -0.1317 ( 53)  0.1203 ( 56)
           0.1604 ( 57) -0.1157 ( 58)  0.1140 ( 61) -0.1699 ( 67)  0.1682 ( 69)
           0.1024 ( 74)  0.1018 ( 81) -0.1145 ( 84) -0.1055 ( 99) -0.1266 (100)
           0.1081 (107)  0.1947 (108) -0.1562 (109) -0.2280 (110) -0.1538 (137)
          -0.1327 (139)
 CRD 15=  -0.1815 (  4)  0.1032 (  9)  0.2628 ( 14) -0.2046 ( 21)  0.1097 ( 22)
          -0.1073 ( 24) -0.1033 ( 25)  0.1575 ( 26) -0.1073 ( 28) -0.1123 ( 29)
           0.1135 ( 32) -0.1943 ( 35)  0.2433 ( 45) -0.1885 ( 46) -0.1404 ( 72)
           0.1106 ( 75)  0.1396 ( 79)  0.1555 ( 80)  0.1316 ( 99)  0.1396 (100)
           0.1301 (101) -0.1090 (103) -0.2739 (109) -0.2383 (110)  0.1667 (111)
           0.1060 (123)  0.1121 (137)  0.1026 (138)  0.1041 (139)
 CRD 16=   0.1934 (  4)  0.1753 (  7) -0.1087 (  9)  0.2416 ( 10)  0.1216 ( 12)
           0.1447 ( 13)  0.4137 ( 14) -0.1831 ( 21)  0.1146 ( 22) -0.1161 ( 27)
           0.1456 ( 29) -0.2237 ( 46)  0.1196 ( 54) -0.1028 ( 57)  0.1055 ( 68)
           0.1129 ( 71) -0.1634 ( 75) -0.1124 ( 77) -0.1072 ( 81) -0.1181 ( 92)
          -0.1325 ( 93) -0.1144 ( 94) -0.1595 ( 99) -0.1739 (100) -0.1558 (101)
          -0.2094 (110) -0.1015 (120) -0.1214 (137) -0.1034 (138) -0.1071 (139)
 CRD 17=   0.3252 (  9) -0.4745 ( 10) -0.2321 ( 11)  0.1275 ( 14) -0.1246 ( 33)
          -0.1447 ( 34) -0.1615 ( 36)  0.1242 ( 37)  0.1476 ( 43) -0.1015 ( 46)
          -0.1809 ( 50) -0.1550 ( 54)  0.1987 ( 75)  0.1820 ( 77) -0.2279 ( 88)
          -0.2348 ( 89)  0.1159 (104)
 CRD 18=  -0.2509 (  6) -0.2163 (  7) -0.1370 ( 11) -0.1776 ( 18)  0.1697 ( 21)
          -0.1874 ( 22)  0.1248 ( 34) -0.1140 ( 39)  0.1589 ( 46)  0.1175 ( 56)
           0.1355 ( 58) -0.1116 ( 66) -0.1004 ( 68) -0.1160 ( 71)  0.1491 ( 78)
           0.1901 ( 80) -0.1513 ( 92) -0.1553 ( 93) -0.1413 ( 94)  0.1892 ( 95)
           0.1247 ( 97) -0.1196 ( 99) -0.1236 (100) -0.1096 (101) -0.1134 (102)
          -0.1304 (103)  0.1196 (105)  0.1018 (110)  0.1936 (133)  0.1526 (135)
          -0.1418 (137) -0.1278 (138) -0.1378 (139) -0.1080 (140)
 CRD 19=  -0.4009 (  4)  0.3103 (  6)  0.1182 ( 14)  0.1627 ( 20)  0.1420 ( 27)
          -0.1110 ( 29) -0.1274 ( 31) -0.1982 ( 33)  0.1021 ( 34)  0.1628 ( 35)
           0.1202 ( 36) -0.1641 ( 37)  0.1089 ( 65)  0.1272 ( 83) -0.1199 ( 91)
          -0.1133 ( 93) -0.1103 ( 94) -0.1675 ( 98) -0.1080 (100) -0.1049 (101)
          -0.1553 (104) -0.1429 (106) -0.1212 (111) -0.1238 (115) -0.1792 (120)
          -0.1574 (123) -0.1034 (124) -0.1171 (131) -0.1050 (132) -0.1145 (136)
 CRD 20=  -0.1016 (  4)  0.1073 (  6)  0.1760 ( 14) -0.1465 ( 17) -0.4701 ( 18)
          -0.3589 ( 19) -0.4906 ( 20)  0.1529 ( 56)  0.1866 ( 57)  0.1654 ( 58)
          -0.1543 ( 66) -0.1633 ( 67) -0.2562 ( 68)
 CRD 21=   0.1833 (  4)  0.1086 (  7)  0.1451 (  9)  0.1720 ( 11) -0.2855 ( 12)
          -0.1652 ( 14) -0.1095 ( 17) -0.1431 ( 18) -0.1802 ( 20)  0.3309 ( 21)
           0.1847 ( 22) -0.2060 ( 31)  0.1828 ( 34) -0.1239 ( 46) -0.1144 ( 69)
           0.1447 ( 71) -0.1512 ( 78) -0.2060 (102) -0.2100 (103) -0.1129 (108)
          -0.1369 (110) -0.1019 (113) -0.1631 (117) -0.1671 (118)  0.1000 (120)
          -0.1798 (131) -0.1837 (132) -0.1315 (135)
 CRD 22=   0.1306 (  4)  0.1402 (  9) -0.1565 ( 12) -0.1473 ( 14) -0.1787 ( 18)
          -0.5453 ( 21) -0.2145 ( 22)  0.1187 ( 33)  0.1376 ( 45)  0.1185 ( 46)
           0.1755 ( 69) -0.2473 ( 71) -0.1142 ( 80) -0.1102 ( 93) -0.1066 ( 94)
          -0.1212 ( 95)  0.1188 (106)  0.1840 (110)  0.1395 (120)  0.1180 (123)
          -0.1371 (131) -0.1044 (132) -0.1067 (133)
 CRD 23=   0.2105 (  6) -0.4398 ( 11)  0.1078 ( 12) -0.1329 ( 14) -0.2319 ( 19)
           0.2253 ( 20)  0.3278 ( 21)  0.3948 ( 22) -0.1096 ( 43) -0.1056 ( 74)
           0.1293 ( 84) -0.1026 ( 92) -0.1245 ( 93) -0.1625 ( 94) -0.1123 (115)
           0.1400 (117)  0.1819 (118)
 CRD 24=   0.2401 (  4)  0.2681 (  6) -0.1279 ( 11)  0.2417 ( 12) -0.1820 ( 14)
           0.1215 ( 18) -0.1511 ( 19) -0.4157 ( 22) -0.1011 ( 65) -0.1049 ( 66)
          -0.1141 ( 69)  0.2152 ( 70) -0.1766 ( 79) -0.1067 ( 83)  0.1360 ( 91)
           0.1278 (100) -0.1108 (106) -0.1640 (107) -0.1649 (122) -0.1155 (126)
          -0.1943 (134) -0.1028 (135)
 CRD 25=   0.1462 ( 11)  0.2847 ( 18) -0.6947 ( 19)  0.1862 ( 20) -0.1721 ( 66)
          -0.1645 ( 67)  0.2855 ( 68) -0.1522 ( 92)  0.2001 ( 94) -0.1998 ( 99)
           0.1526 (101)  0.1662 (138) -0.1862 (139)
 CRD 26=  -0.1564 (  4) -0.1966 (  6)  0.1906 (  9)  0.2683 ( 10) -0.4203 ( 11)
          -0.2883 ( 12)  0.3200 ( 18) -0.3185 ( 20) -0.1326 ( 64) -0.2021 ( 66)
           0.2086 ( 67)  0.1515 ( 93)  0.1716 (100) -0.1059 (121) -0.1232 (128)
           0.1612 (137)
 CRD 27=   0.2291 (  4)  0.4049 (  6) -0.1442 (  9) -0.1959 ( 11) -0.5718 ( 12)
           0.1567 ( 14) -0.1165 ( 22)  0.1127 ( 31)  0.1015 ( 55)  0.1242 ( 62)
          -0.1773 ( 64)  0.1043 ( 77)  0.1035 ( 88)  0.1246 (102) -0.1302 (118)
           0.1030 (119)  0.1394 (121)  0.1547 (127)  0.1340 (129)  0.1299 (131)
 CRD 28=  -0.1975 (  4)  0.4157 (  9)  0.4452 ( 10) -0.2401 ( 18)  0.2657 ( 20)
          -0.2038 ( 22)  0.1731 ( 63)  0.1631 ( 66) -0.2003 ( 67)  0.1353 ( 94)
          -0.1105 (100)  0.1080 (101)  0.1163 (126)  0.1077 (129) -0.1260 (137)
 CRD 29=  -0.1494 (  4) -0.3859 (  6) -0.4132 (  9) -0.2173 ( 10) -0.2954 ( 11)
          -0.1651 ( 12) -0.1690 ( 18)  0.2097 ( 20)  0.1180 ( 36) -0.1292 ( 62)
          -0.1455 ( 63)  0.1119 ( 66) -0.1294 ( 67)  0.1220 (101) -0.1117 (104)
          -0.2262 (119) -0.1059 (125) -0.1260 (126) -0.1373 (130)
 CRD 30=   0.4507 (  4) -0.1033 (  7)  0.1295 (  9)  0.1039 ( 10) -0.1733 ( 11)
          -0.1108 ( 18)  0.1568 ( 20)  0.2307 ( 22) -0.1366 ( 29) -0.1059 ( 33)
          -0.1105 ( 37) -0.1305 ( 50)  0.1447 ( 62)  0.1148 ( 69) -0.1006 ( 70)
           0.1419 ( 78)  0.1296 ( 79) -0.1362 ( 89)  0.1018 ( 94)  0.1092 (101)
           0.1057 (107)  0.1180 (108) -0.1093 (121) -0.2139 (124) -0.1930 (126)
          -0.1759 (127) -0.1732 (128) -0.1102 (129) -0.1075 (130)  0.1421 (134)
           0.1543 (135)  0.1065 (138)
 CRD 31=   0.1351 (  4) -0.1080 (  6)  0.1027 (  9) -0.1570 ( 10) -0.1704 ( 11)
           0.1286 ( 12) -0.1651 ( 22) -0.1363 ( 69) -0.1166 ( 75) -0.1299 ( 76)
          -0.1340 ( 77) -0.1465 ( 78)  0.1531 ( 83)  0.1129 ( 85) -0.1857 ( 91)
          -0.1279 ( 99) -0.1196 (101)  0.2003 (102)  0.1375 (103)  0.1494 (106)
          -0.1634 (108)  0.1257 (111) -0.1145 (112) -0.1047 (113)  0.1216 (120)
           0.2135 (122)  0.1898 (125) -0.1932 (127) -0.1758 (128) -0.1834 (129)
          -0.1660 (130)  0.1475 (131) -0.1967 (135)
 CRD 32=  -0.1529 ( 13)  0.3624 ( 14)  0.2191 ( 21) -0.1032 ( 26)  0.1475 ( 39)
          -0.1092 ( 42) -0.1092 ( 48)  0.2283 ( 69)  0.1873 ( 70) -0.2640 ( 71)
           0.1695 ( 78) -0.3222 ( 79) -0.2762 (107)  0.2155 (108) -0.1128 (127)
          -0.2275 (134)  0.2642 (135)
 CRD 33=  -0.1594 (  4)  0.1247 (  6)  0.2433 (  9) -0.3306 ( 10) -0.1121 ( 14)
           0.1211 ( 54) -0.1807 ( 75) -0.1238 ( 77) -0.1192 ( 83) -0.1078 ( 86)
           0.1249 ( 87)  0.1578 ( 88)  0.1919 ( 89)  0.1733 ( 98)  0.1474 (104)
          -0.1259 (106) -0.1035 (111) -0.1099 (113)  0.1802 (119) -0.1012 (120)
           0.2062 (121) -0.1373 (122)  0.2403 (124) -0.1149 (125)  0.2144 (126)
          -0.1271 (127) -0.1840 (128) -0.1541 (129) -0.2110 (130)
 CRD 34=  -0.1655 ( 13)  0.2638 ( 14)  0.2275 ( 18)  0.1069 ( 19)  0.1992 ( 20)
           0.1447 ( 26)  0.1022 ( 34) -0.1155 ( 55)  0.1397 ( 56)  0.1626 ( 57)
           0.1410 ( 58) -0.1326 ( 61) -0.1361 ( 65) -0.1256 ( 66) -0.1362 ( 67)
          -0.2352 ( 68)  0.1577 ( 72)  0.1045 ( 91) -0.1031 ( 97) -0.1238 (103)
           0.1612 (110)  0.1280 (119) -0.1183 (127)  0.1060 (130) -0.1383 (132)
          -0.1782 (133) -0.1828 (135)  0.1916 (136)
 CRD 35=   0.1082 ( 12) -0.2691 ( 14)  0.1784 ( 19)  0.1371 ( 21)  0.1079 ( 26)
          -0.1183 ( 33) -0.1251 ( 35)  0.1662 ( 44)  0.1662 ( 49)  0.1134 ( 56)
           0.1114 ( 62) -0.1338 ( 64) -0.1511 ( 66)  0.1207 ( 69)  0.1466 ( 78)
          -0.1075 ( 82)  0.1007 ( 93)  0.1180 ( 94) -0.1645 (107)  0.1558 (111)
          -0.1417 (118) -0.1940 (120)  0.1554 (125)  0.1163 (127) -0.1844 (132)
          -0.1461 (133) -0.2260 (134)  0.1432 (137)  0.1605 (138)
 CRD 36=   0.2976 (  4) -0.2521 (  6)  0.2116 (  9) -0.2845 ( 10)  0.2079 ( 11)
          -0.1483 ( 12) -0.1028 ( 37)  0.1328 ( 54)  0.1252 ( 65)  0.1348 ( 83)
          -0.1039 ( 85)  0.1221 ( 89)  0.1237 ( 90) -0.1592 ( 98) -0.1239 (106)
           0.1067 (109) -0.1535 (111)  0.1452 (112)  0.1942 (113) -0.2055 (115)
           0.1345 (117) -0.1014 (123)  0.1023 (129) -0.1944 (136)
 CRD 37=  -0.1776 (  7)  0.1647 (  9) -0.1392 ( 10)  0.1327 ( 11) -0.1187 ( 12)
           0.1838 ( 17)  0.2333 ( 22)  0.1003 ( 26)  0.2075 ( 46) -0.1111 ( 51)
          -0.1111 ( 60) -0.1538 ( 65) -0.1041 ( 69) -0.1569 ( 71) -0.1523 ( 83)
           0.2081 ( 91) -0.1188 ( 98) -0.1043 (100)  0.1011 (102)  0.1244 (103)
          -0.1399 (104) -0.1317 (109)  0.2202 (110)  0.2495 (115) -0.1991 (122)
          -0.1595 (125) -0.1054 (134) -0.1188 (135)  0.2154 (136)
 CRD 38=  -0.1718 (  9)  0.1089 ( 13)  0.4148 ( 17) -0.2818 ( 18) -0.2212 ( 20)
           0.1189 ( 21) -0.1111 ( 36) -0.1158 ( 43) -0.1048 ( 50) -0.1066 ( 52)
          -0.1066 ( 53) -0.1828 ( 56) -0.1939 ( 57) -0.1758 ( 58)  0.1131 ( 63)
           0.1345 ( 66)  0.1642 ( 67)  0.3096 ( 68)  0.1229 (104)  0.2237 (119)
          -0.1222 (124) -0.1286 (132) -0.1098 (133)
 CRD 39=  -0.2301 (  5) -0.1633 (  6)  0.1077 (  7)  0.2214 (  8)  0.1646 ( 12)
          -0.1117 ( 13)  0.1205 ( 18) -0.1961 ( 21)  0.1933 ( 22)  0.2252 ( 27)
           0.1803 ( 29) -0.1923 ( 36) -0.2255 ( 37)  0.1055 ( 62) -0.1120 ( 64)
          -0.1039 ( 69) -0.1096 ( 79) -0.1534 ( 98) -0.1100 (103)  0.1260 (104)
           0.1015 (112) -0.1619 (113)  0.2187 (119) -0.1085 (122) -0.1254 (124)
           0.1541 (126)  0.1949 (127)  0.1452 (128) -0.1181 (130)
 CRD 40=  -0.1070 (  5) -0.1046 (  7)  0.1832 (  8)  0.1531 (  9) -0.2675 ( 13)
           0.1341 ( 15)  0.1341 ( 16)  0.3084 ( 21) -0.3382 ( 22)  0.1329 ( 29)
          -0.1168 ( 31)  0.1193 ( 45)  0.1381 ( 55) -0.1287 ( 63)  0.1370 ( 69)
          -0.1728 ( 70)  0.1293 ( 79) -0.1151 ( 80)  0.1941 (107) -0.1139 (110)
           0.1200 (112)  0.2410 (127) -0.1423 (130) -0.1259 (133)  0.1185 (134)
 CRD 41=   0.2277 (  5) -0.2094 (  7) -0.1504 (  8) -0.1147 ( 14)  0.1635 ( 15)
           0.1635 ( 16)  0.2511 ( 17) -0.1724 ( 19) -0.1490 ( 20) -0.1637 ( 33)
          -0.1529 ( 35)  0.1728 ( 43)  0.1481 ( 50) -0.1302 ( 54) -0.1077 ( 55)
           0.1939 ( 66)  0.1570 ( 75)  0.1370 ( 89) -0.1071 ( 97) -0.1290 (106)
          -0.1417 (119) -0.1103 (120)  0.1039 (123)  0.1453 (124)  0.1392 (125)
           0.1624 (128) -0.1295 (129)  0.1097 (130) -0.1093 (137)
 CRD 42=  -0.1053 (  9)  0.3181 ( 13) -0.1624 ( 17)  0.1953 ( 18)  0.1261 ( 19)
          -0.1228 ( 20)  0.1875 ( 21) -0.1671 ( 22)  0.1032 ( 31) -0.1139 ( 40)
          -0.1139 ( 41)  0.1139 ( 45) -0.1361 ( 55)  0.1975 ( 58)  0.1005 ( 63)
          -0.1940 ( 67) -0.1246 ( 92) -0.2290 ( 93) -0.1383 ( 95) -0.1026 ( 98)
          -0.1258 (100)  0.1111 (101)  0.1109 (102)  0.1138 (107) -0.1032 (109)
           0.1956 (117) -0.1075 (121)  0.1172 (126) -0.1348 (127) -0.1008 (129)
           0.1069 (131)  0.1620 (134) -0.1256 (137)  0.1112 (138)
 CRD 43=  -0.1519 (  5)  0.2073 (  6) -0.1347 (  7) -0.1353 (  8)  0.1241 (  9)
           0.1528 ( 12)  0.1748 ( 14) -0.2395 ( 15) -0.2395 ( 16)  0.1458 ( 17)
           0.1818 ( 19) -0.1961 ( 20)  0.1329 ( 43) -0.1551 ( 62) -0.1571 ( 63)
          -0.1228 ( 64) -0.1397 ( 67)  0.1190 ( 68) -0.1365 ( 88) -0.1196 ( 92)
          -0.1215 ( 93)  0.1265 ( 94)  0.2131 (101) -0.1016 (114) -0.1037 (115)
          -0.1979 (119)  0.1326 (120)  0.1002 (124)  0.1674 (127) -0.1108 (130)
           0.1834 (138)
 CRD 44=  -0.1020 ( 13) -0.1162 ( 14)  0.1207 ( 15)  0.1207 ( 16)  0.2531 ( 18)
          -0.2948 ( 20) -0.1364 ( 50)  0.1032 ( 54) -0.1843 ( 57)  0.1652 ( 58)
           0.1362 ( 62)  0.1601 ( 66) -0.1858 ( 67) -0.1449 ( 89) -0.2289 ( 93)
           0.1054 ( 98) -0.1716 (100)  0.1469 (101) -0.1089 (115)  0.1471 (118)
           0.1836 (121)  0.1116 (125) -0.1396 (126) -0.1105 (128) -0.1232 (134)
          -0.1862 (137)  0.1323 (138)
 CRD 45=   0.1062 (  4) -0.2104 (  8)  0.2068 ( 12)  0.2038 ( 18) -0.2137 ( 19)
           0.1253 ( 34)  0.1048 ( 36)  0.1082 ( 42)  0.1082 ( 48)  0.1090 ( 56)
          -0.1161 ( 57) -0.1770 ( 64)  0.1799 ( 66) -0.1231 ( 68)  0.1047 ( 77)
           0.2631 ( 92)  0.1750 ( 99) -0.1305 (100) -0.1498 (101)  0.1060 (102)
          -0.1001 (103) -0.1243 (116) -0.2064 (118) -0.1397 (123) -0.1621 (125)
           0.2108 (129) -0.1598 (132) -0.1158 (138)  0.2090 (139)
 CRD 46=   0.2329 (  5) -0.1147 (  6)  0.1287 (  7)  0.1269 ( 14) -0.1318 ( 15)
          -0.1318 ( 16) -0.1028 ( 31) -0.1343 ( 33) -0.3028 ( 39)  0.3037 ( 42)
           0.3037 ( 48)  0.1368 ( 50)  0.1267 ( 57)  0.1060 ( 62)  0.1009 ( 70)
          -0.1676 ( 79)  0.1219 ( 81)  0.1023 ( 92) -0.1465 (106) -0.1054 (114)
          -0.2744 (116) -0.1422 (117) -0.1593 (122)  0.1755 (123)
 CRD 47=  -0.2493 (  4)  0.1490 (  6)  0.2391 ( 11) -0.1481 ( 12) -0.1541 ( 19)
           0.1333 ( 29)  0.1301 ( 31)  0.1227 ( 33) -0.1078 ( 35) -0.1479 ( 39)
          -0.1280 ( 50)  0.1106 ( 54) -0.1034 ( 55)  0.1008 ( 74) -0.1876 ( 75)
           0.1593 ( 76) -0.1305 ( 77) -0.1008 ( 81) -0.1103 ( 85) -0.1328 ( 86)
          -0.1776 ( 89) -0.1547 ( 94)  0.1013 ( 99) -0.1249 (101)  0.1050 (102)
           0.1066 (111)  0.1370 (112) -0.1054 (116)  0.1305 (117)  0.1386 (123)
          -0.2117 (124)  0.1645 (125) -0.1484 (126) -0.1571 (130)  0.1323 (131)
          -0.1226 (138)  0.1037 (139)
 CRD 48=  -0.1467 (  6)  0.2053 (  7) -0.3002 (  8)  0.2322 (  9)  0.1546 ( 13)
           0.1885 ( 23)  0.1001 ( 31) -0.1402 ( 32)  0.1065 ( 35)  0.1195 ( 36)
          -0.1052 ( 43) -0.1259 ( 54)  0.1556 ( 62) -0.2386 ( 63) -0.1177 ( 77)
           0.2108 ( 88)  0.1136 ( 98) -0.2134 (104)  0.1176 (112)  0.3092 (121)
          -0.2867 (126)  0.2153 (128) -0.1592 (129)
 CRD 49=  -0.2553 (  5)  0.1599 (  8)  0.1088 (  9) -0.1391 ( 11) -0.1589 ( 12)
           0.1796 ( 13)  0.1109 ( 29) -0.2127 ( 30) -0.1671 ( 37) -0.1636 ( 39)
           0.1019 ( 40)  0.1019 ( 41) -0.1129 ( 62)  0.2339 ( 64)  0.1306 ( 75)
          -0.1798 ( 77)  0.1656 ( 92)  0.1065 ( 95) -0.1151 (102)  0.1389 (103)
           0.1114 (106)  0.1240 (112) -0.2186 (117) -0.1284 (123)  0.2940 (128)
          -0.2143 (129) -0.1614 (131)
 CRD 50=   0.2790 (  7) -0.1628 ( 10) -0.1729 ( 13) -0.1167 ( 14)  0.1467 ( 17)
           0.1030 ( 19) -0.1150 ( 24) -0.1027 ( 26) -0.1157 ( 27) -0.1150 ( 28)
           0.1587 ( 40)  0.1587 ( 41) -0.1453 ( 42) -0.1453 ( 48)  0.2432 ( 52)
           0.2432 ( 53) -0.1048 ( 73) -0.1417 ( 83)  0.1275 ( 88) -0.1034 ( 92)
          -0.1291 ( 97) -0.1016 ( 98) -0.1402 ( 99) -0.1228 (105) -0.1021 (107)
          -0.1142 (108) -0.1897 (124) -0.1258 (126)  0.1306 (129)  0.1406 (130)
           0.1153 (133)  0.1360 (134)  0.1239 (135) -0.1016 (139)  0.1123 (140)
 CRD 51=   0.1099 (  4) -0.1038 (  5)  0.1657 (  7)  0.2073 ( 10)  0.1161 ( 11)
          -0.1040 ( 12) -0.1040 ( 15) -0.1040 ( 16)  0.2451 ( 17)  0.1134 ( 27)
          -0.1065 ( 33) -0.1760 ( 34) -0.1012 ( 36)  0.1202 ( 37)  0.1460 ( 52)
           0.1460 ( 53)  0.1260 ( 54) -0.1170 ( 63)  0.2041 ( 73)  0.1141 ( 81)
          -0.1512 ( 82) -0.1511 ( 84) -0.1283 ( 85)  0.1376 ( 86) -0.2122 ( 87)
           0.1790 (121)  0.2180 (124) -0.1327 (125) -0.1112 (128) -0.1673 (129)
          -0.2587 (130)
 CRD 52=   0.1010 (  5) -0.1323 (  7)  0.1030 ( 13)  0.1304 ( 14) -0.3018 ( 15)
          -0.3018 ( 16) -0.1353 ( 17)  0.1796 ( 24) -0.1588 ( 26)  0.1796 ( 28)
          -0.1470 ( 30) -0.1540 ( 32)  0.1307 ( 39) -0.1526 ( 42) -0.1526 ( 48)
           0.1073 ( 56) -0.2456 ( 57) -0.1949 ( 78) -0.1624 ( 80)  0.1301 ( 92)
           0.1664 (107)  0.1977 (116) -0.1200 (122)  0.1664 (123)  0.1584 (134)
           0.1925 (139)
 CRD 53=   0.1504 (  7)  0.1236 (  8)  0.3256 ( 13)  0.4503 ( 17) -0.1403 ( 23)
           0.1185 ( 30)  0.1376 ( 32) -0.1137 ( 35)  0.2317 ( 39) -0.1434 ( 40)
          -0.1434 ( 41)  0.2365 ( 58)  0.1045 ( 61) -0.1127 ( 66) -0.1592 ( 68)
           0.1060 ( 72)  0.2010 ( 74) -0.1279 ( 84) -0.1084 ( 86) -0.1053 ( 91)
          -0.1426 ( 95) -0.1544 (117)  0.1041 (122)  0.1194 (125)
 CRD 54=   0.1710 (  7)  0.3185 ( 25)  0.1996 ( 38) -0.1027 ( 42) -0.1234 ( 46)
          -0.1027 ( 48) -0.2553 ( 61) -0.1423 ( 65)  0.2313 ( 72) -0.1466 ( 82)
           0.1055 ( 83) -0.3074 ( 90)  0.1029 ( 95) -0.1285 (109) -0.1653 (110)
          -0.3309 (114)  0.2130 (116)  0.1150 (117) -0.1179 (132)  0.1636 (136)

 THE DETERMINANT OF THE G MATRIX IS 10**(   -12)


                     --------------------
                     INTERNAL COORDINATES
                     --------------------

                 - - ATOMS - -         COORDINATE      COORDINATE
 NO.   TYPE    I  J  K  L  M  N        (BOHR,RAD)       (ANG,DEG)
 ----------------------------------------------------------------
   1 STRETCH   4 17                     3.9294077       2.0793531
   2 STRETCH   5 18                     3.7965181       2.0090310
   3 STRETCH  17 18                     3.7465516       1.9825898
   4 STRETCH   1  7                     2.1011942       1.1119042
   5 STRETCH   1  2                     2.9041924       1.5368326
   6 STRETCH   1  8                     2.0991712       1.1108337
   7 STRETCH   1  4                     2.7745243       1.4682152
   8 STRETCH   2  3                     2.8942978       1.5315965
   9 STRETCH   2 10                     2.0981008       1.1102672
  10 STRETCH   2  9                     2.1003474       1.1114561
  11 STRETCH   3 12                     2.1003367       1.1114504
  12 STRETCH   3 11                     2.0993859       1.1109472
  13 STRETCH   3  5                     2.8447550       1.5053796
  14 STRETCH   4 13                     2.1214759       1.1226368
  15 STRETCH   4  5                     2.5509652       1.3499128
  16 STRETCH   4  5                     2.5509652       1.3499128
  17 STRETCH   5  6                     2.8332927       1.4993140
  18 STRETCH   6 15                     2.1132546       1.1182863
  19 STRETCH   6 14                     2.0968404       1.1096002
  20 STRETCH   6 16                     2.1045397       1.1136745
  21 STRETCH  17 20                     2.2386332       1.1846337
  22 STRETCH  17 19                     2.2434317       1.1871730
  23 BEND      1  2  3                  1.8163440     104.0688482
  24 BEND      1  4  5                  1.9059690     109.2039820
  25 BEND      1  4 17                  1.9980233     114.4783016
  26 BEND      1  4 13                  2.1285593     121.9574646
  27 BEND      1  2 10                  2.0216569     115.8324108
  28 BEND      1  4  5                  1.9059690     109.2039820
  29 BEND      1  2  9                  1.8554712     106.3106694
  30 BEND      2  3  5                  1.7487690     100.1970815
  31 BEND      2  3 11                  1.9874406     113.8719600
  32 BEND      2  1  4                  1.8075408     103.5644595
  33 BEND      2  1  7                  1.9298344     110.5713661
  34 BEND      2  3 12                  1.8992217     108.8173856
  35 BEND      2  1  8                  1.9429172     111.3209529
  36 BEND      3  2  9                  1.8830496     107.8907945
  37 BEND      3  2 10                  2.0224261     115.8764817
  38 BEND      3  5 18                  1.4352087      82.2314038
  39 BEND      3  5  6                  2.3763670     136.1557990
  40 BEND      3  5  4                  1.9708056     112.9188450
  41 BEND      3  5  4                  1.9708056     112.9188450
  42 BEND      4  5  6                  1.9080295     109.3220386
  43 BEND      4  1  7                  1.8627501     106.7277205
  44 BEND      4  5 18                  1.6669312      95.5081251
  45 BEND      4 17 19                  1.7782023     101.8834880
  46 BEND      4 17 20                  2.2839366     130.8599262
  47 BEND      4 17 18                  1.3413458      76.8534504
  48 BEND      4  5  6                  1.9080295     109.3220386
  49 BEND      4  5 18                  1.6669312      95.5081251
  50 BEND      4  1  8                  2.0029037     114.7579280
  51 BEND      5  4 17                  1.6037316      91.8870537
  52 BEND      5  4 13                  2.1911194     125.5418951
  53 BEND      5  4 13                  2.1911194     125.5418951
  54 BEND      5  3 11                  2.0371820     116.7219332
  55 BEND      5  3 12                  1.8568155     106.3876905
  56 BEND      5  6 14                  1.8167095     104.0897856
  57 BEND      5  6 15                  2.0548084     117.7318489
  58 BEND      5  6 16                  2.0387432     116.8113788
  59 BEND      5 18 17                  1.3639520      78.1486910
  60 BEND      5  4 17                  1.6037316      91.8870537
  61 BEND      6  5 18                  1.4419597      82.6182063
  62 BEND      7  1  8                  1.9141605     109.6733201
  63 BEND      9  2 10                  1.8552663     106.2989273
  64 BEND     11  3 12                  1.9220145     110.1233178
  65 BEND     13  4 17                  1.4602967      83.6688350
  66 BEND     14  6 16                  1.7832533     102.1728869
  67 BEND     14  6 15                  1.7528459     100.4306737
  68 BEND     15  6 16                  1.9596083     112.2772850
  69 BEND     18 17 19                  1.9953031     114.3224445
  70 BEND     18 17 20                  2.0476647     117.3225444
  71 BEND     19 17 20                  1.9454160     111.4641255
  72 TORSION   1  4  5 18               1.4649043      83.9328340
  73 TORSION   1  2  3  5              -0.5115505     -29.3096870
  74 TORSION   1  4  5  6               2.9325487     168.0226630
  75 TORSION   1  2  3 11              -2.7001227    -154.7056357
  76 TORSION   1  4  5  3               0.0009781       0.0560429
  77 TORSION   1  2  3 12               1.4319613      82.0453392
  78 TORSION   1  4 17 19               0.6034619      34.5758190
  79 TORSION   1  4 17 20               2.9171775     167.1419561
  80 TORSION   1  4 17 18              -1.3604522     -77.9481713
  81 TORSION   2  1  4 17               1.4312751      82.0060250
  82 TORSION   2  3  5 18              -1.2852398     -73.6388169
  83 TORSION   2  1  4 13              -3.1394360    -179.8764323
  84 TORSION   2  3  5  6              -2.5205389    -144.4162427
  85 TORSION   2  3  5  4               0.3330726      19.0836566
  86 TORSION   2  1  4  5              -0.3377063     -19.3491463
  87 TORSION   3  2  1  4               0.5335743      30.5715534
  88 TORSION   3  2  1  7              -1.4561678     -83.4322671
  89 TORSION   3  2  1  8               2.6946840     154.3940218
  90 TORSION   3  5  4 17              -2.0371193    -116.7183372
  91 TORSION   3  5  4 13               2.7875661     159.7157737
  92 TORSION   3  5  6 16               0.8478539      48.5784522
  93 TORSION   3  5  6 14              -1.1024227     -63.1641690
  94 TORSION   3  5  6 15              -3.0231542    -173.2139771
  95 TORSION   3  5 18 17               2.5822170     147.9501385
  96 TORSION   4 17 18  5              -0.3956998     -22.6719274
  97 TORSION   4  5 18 17               0.6197841      35.5110122
  98 TORSION   4  1  2 10               2.7746465     158.9755337
  99 TORSION   4  5  6 16              -2.0128494    -115.3277774
 100 TORSION   4  5  6 14               2.3200592     132.9296014
 101 TORSION   4  5  6 15               0.3993277      22.8797933
 102 TORSION   4  5  3 11               2.4873228     142.5130978
 103 TORSION   4  5  3 12              -1.6432537     -94.1514999
 104 TORSION   4  1  2  9              -1.4523609     -83.2141475
 105 TORSION   5  4 17 18               0.5964815      34.1758717
 106 TORSION   5  4  1  7               1.6997869      97.3906170
 107 TORSION   5  4 17 20              -1.4090741     -80.7340008
 108 TORSION   5  4 17 19               2.5603956     146.6998620
 109 TORSION   5 18 17 19              -2.0933293    -119.9389314
 110 TORSION   5 18 17 20               1.8637703     106.7861715
 111 TORSION   5  4  1  8              -2.4590453    -140.8929200
 112 TORSION   5  3  2  9               1.4546061      83.3427908
 113 TORSION   5  3  2 10              -2.7521523    -157.6867130
 114 TORSION   6  5  4 17               0.8944513      51.2482829
 115 TORSION   6  5  4 13              -0.5640486     -32.3176062
 116 TORSION   6  5 18 17              -1.2795899     -73.3151022
 117 TORSION   6  5  3 11              -0.3662888     -20.9868015
 118 TORSION   6  5  3 12               1.7863201     102.3486008
 119 TORSION   7  1  2  9               2.8410824     162.7820320
 120 TORSION   7  1  4 17              -2.8144169    -161.2542117
 121 TORSION   7  1  2 10               0.7849045      44.9717132
 122 TORSION   7  1  4 13              -1.1019428     -63.1366690
 123 TORSION   8  1  4 17              -0.6900639     -39.5377488
 124 TORSION   8  1  2 10              -1.3474291     -77.2019980
 125 TORSION   8  1  4 13               1.0224103      58.5797940
 126 TORSION   8  1  2  9               0.7087489      40.6083208
 127 TORSION   9  2  3 12              -2.8850674    -165.3021830
 128 TORSION   9  2  3 11              -0.7339661     -42.0531579
 129 TORSION  10  2  3 12              -0.8086405     -46.3316868
 130 TORSION  10  2  3 11               1.3424608      76.9173384
 131 TORSION  11  3  5 18               0.8690103      49.7906242
 132 TORSION  12  3  5 18               3.0216192     173.1260265
 133 TORSION  13  4 17 18               2.7878822     159.7338815
 134 TORSION  13  4 17 20               0.7823265      44.8240089
 135 TORSION  13  4 17 19              -1.5313890     -87.7421282
 136 TORSION  13  4  5 18              -2.0316930    -116.4074352
 137 TORSION  14  6  5 18              -2.3351575    -133.7946720
 138 TORSION  15  6  5 18               2.0272963     116.1555199
 139 TORSION  16  6  5 18              -0.3848809     -22.0520509
 140 TORSION  17  4  5 18              -0.5731931     -32.8415461

     ------------------------------------------
     THE POINT GROUP IS C1 , NAXIS= 0, ORDER= 1
     ------------------------------------------

     DIMENSIONS OF THE SYMMETRY SUBSPACES ARE
 A   =   48

 ..... DONE SETTING UP THE RUN .....
 STEP CPU TIME =     0.04 TOTAL CPU TIME =          0.0 (      0.0 MIN)
 TOTAL WALL CLOCK TIME=          0.1 SECONDS, CPU UTILIZATION IS    66.67%


          -----------------------------
          STATIONARY POINT LOCATION RUN
          -----------------------------


           ** GEOMETRY CONSTRAINTS ARE BEING APPLIED. **

          TRANSFORMING DISPLACEMENT FROM INTERNALS TO CARTESIANS
          THE ROOT MEAN SQUARE ERROR IN ITERATION   1 IS   0.00000187
          THE ROOT MEAN SQUARE ERROR IN ITERATION   2 IS   0.00000000
 WARNING! THE RADIUS IN CARTESIANS IS    0.00633
 OBTAINING INITIAL HESSIAN, HESS=CALC    

     ---------------------------------
     HESSIAN MATRIX CONTROL PARAMETERS
     ---------------------------------
     METHOD=ANALYTIC   NVIB  =       2   VIBSIZ= 0.01000
     RDHESS=       F   PURIFY=       F   PRTIFC=       F
     VIBANL=       F   DECOMP=       F   PROJCT=       F
     SCLFAC= 1.00000   PRTSCN=       F   NPRT  =       0
     PULCOR=       F   NPUN  =       0   REDOVB=       T
     HSSTYP=GENERAL 
 Old integral subroutine is used

     ------------------------------
     CPHF RESPONSE SOLUTION OPTIONS
     ------------------------------
     POLAR  =       F     NWORD  =       0
     CPHF   =AO      

          ********************
          1 ELECTRON INTEGRALS
          ********************
 ...... END OF ONE-ELECTRON INTEGRALS ......
 STEP CPU TIME =     0.04 TOTAL CPU TIME =          0.1 (      0.0 MIN)
 TOTAL WALL CLOCK TIME=          0.1 SECONDS, CPU UTILIZATION IS    88.89%

          -------------
          GUESS OPTIONS
          -------------
          GUESS =HUCKEL            NORB  =       0          NORDER=       0
          MIX   =       F          PRTMO =       F          PUNMO =       F
          TOLZ  = 1.0E-08          TOLE  = 1.0E-05
          SYMDEN=       F          PURIFY=       F

 INITIAL GUESS ORBITALS GENERATED BY HUCKEL   ROUTINE.
 HUCKEL GUESS REQUIRES     39252 WORDS.

 SYMMETRIES FOR INITIAL GUESS ORBITALS FOLLOW.   BOTH SET(S).
    27 ORBITALS ARE OCCUPIED (    7 CORE ORBITALS).
     8=A        9=A       10=A       11=A       12=A       13=A       14=A   
    15=A       16=A       17=A       18=A       19=A       20=A       21=A   
    22=A       23=A       24=A       25=A       26=A       27=A       28=A   
    29=A       30=A       31=A       32=A       33=A       34=A       35=A   
    36=A       37=A   
 ...... END OF INITIAL ORBITAL SELECTION ......
 STEP CPU TIME =     0.01 TOTAL CPU TIME =          0.1 (      0.0 MIN)
 TOTAL WALL CLOCK TIME=          0.1 SECONDS, CPU UTILIZATION IS    90.00%

                    ----------------------
                    AO INTEGRAL TECHNOLOGY
                    ----------------------
     S,P,L SHELL ROTATED AXIS INTEGRALS, REPROGRAMMED BY
        KAZUYA ISHIMURA (IMS) AND JOSE SIERRA (SYNSTAR).
     S,P,D,L SHELL ROTATED AXIS INTEGRALS PROGRAMMED BY
        KAZUYA ISHIMURA (INSTITUTE FOR MOLECULAR SCIENCE).
     S,P,D,F,G SHELL TO TOTAL QUARTET ANGULAR MOMENTUM SUM 5,
        ERIC PROGRAM BY GRAHAM FLETCHER (ELORET AND NASA ADVANCED
        SUPERCOMPUTING DIVISION, AMES RESEARCH CENTER).
     S,P,D,F,G,L SHELL GENERAL RYS QUADRATURE PROGRAMMED BY
        MICHEL DUPUIS (PACIFIC NORTHWEST NATIONAL LABORATORY).

          --------------------
          2 ELECTRON INTEGRALS
          --------------------

 THE -PK- OPTION IS OFF, THE INTEGRALS ARE NOT IN SUPERMATRIX FORM.
 STORING   15000 INTEGRALS/RECORD ON DISK, USING 12 BYTES/INTEGRAL.
 TWO ELECTRON INTEGRAL EVALUATION REQUIRES   89734 WORDS OF MEMORY.
 SCHWARZ INEQUALITY OVERHEAD:      1169 INTEGRALS, T=        0.00
 II,JST,KST,LST =  1  1  1  1 NREC =         1 INTLOC =    1
 II,JST,KST,LST =  2  1  1  1 NREC =         1 INTLOC =    2
 II,JST,KST,LST =  3  1  1  1 NREC =         1 INTLOC =   34
 II,JST,KST,LST =  4  1  1  1 NREC =         1 INTLOC =  142
 II,JST,KST,LST =  5  1  1  1 NREC =         1 INTLOC = 1362
 II,JST,KST,LST =  6  1  1  1 NREC =         1 INTLOC = 1938
 II,JST,KST,LST =  7  1  1  1 NREC =         1 INTLOC = 6807
 II,JST,KST,LST =  8  1  1  1 NREC =         1 INTLOC = 8524
 II,JST,KST,LST =  9  1  1  1 NREC =         2 INTLOC = 5978
 II,JST,KST,LST = 10  1  1  1 NREC =         2 INTLOC = 9971
 II,JST,KST,LST = 11  1  1  1 NREC =         4 INTLOC = 5485
 II,JST,KST,LST = 12  1  1  1 NREC =         4 INTLOC =12350
 II,JST,KST,LST = 13  1  1  1 NREC =         7 INTLOC =11917
 II,JST,KST,LST = 14  1  1  1 NREC =         8 INTLOC =11353
 II,JST,KST,LST = 15  1  1  1 NREC =         9 INTLOC =12131
 II,JST,KST,LST = 16  1  1  1 NREC =        10 INTLOC =14659
 II,JST,KST,LST = 17  1  1  1 NREC =        12 INTLOC = 3451
 II,JST,KST,LST = 18  1  1  1 NREC =        13 INTLOC = 9389
 II,JST,KST,LST = 19  1  1  1 NREC =        15 INTLOC = 2232
 II,JST,KST,LST = 20  1  1  1 NREC =        16 INTLOC =12030
 II,JST,KST,LST = 21  1  1  1 NREC =        18 INTLOC = 8471
 II,JST,KST,LST = 22  1  1  1 NREC =        20 INTLOC = 7070
 II,JST,KST,LST = 23  1  1  1 NREC =        22 INTLOC = 7969
 II,JST,KST,LST = 24  1  1  1 NREC =        24 INTLOC = 5075
 II,JST,KST,LST = 25  1  1  1 NREC =        35 INTLOC =  383
 II,JST,KST,LST = 26  1  1  1 NREC =        38 INTLOC = 3156
 II,JST,KST,LST = 27  1  1  1 NREC =        41 INTLOC = 8407
 SCHWARZ INEQUALITY TEST SKIPPED        7660 INTEGRAL BLOCKS.
 TOTAL NUMBER OF NONZERO TWO-ELECTRON INTEGRALS =              660762
         45 INTEGRAL RECORDS WERE STORED ON DISK FILE  8.
  ...... END OF TWO-ELECTRON INTEGRALS .....
 STEP CPU TIME =     0.19 TOTAL CPU TIME =          0.3 (      0.0 MIN)
 TOTAL WALL CLOCK TIME=          0.3 SECONDS, CPU UTILIZATION IS    93.33%

          --------------------------
                 RHF SCF CALCULATION
          --------------------------

     NUCLEAR ENERGY =       307.6319067742
     MAXIT =   30     NPUNCH=    2
     EXTRAP=T  DAMP=F  SHIFT=F  RSTRCT=F  DIIS=F  DEM=F  SOSCF=T
     DENSITY MATRIX CONV=  1.00E-05
     SOSCF WILL OPTIMIZE     567 ORBITAL ROTATIONS, SOGTOL=   0.250
     MEMORY REQUIRED FOR RHF ITERS=     49068 WORDS.

 ITER EX DEM     TOTAL ENERGY        E CHANGE  DENSITY CHANGE     ORB. GRAD
   1  0  0     -255.6446497216  -255.6446497216   0.302179857   0.000000000
          ---------------START SECOND ORDER SCF---------------
   2  1  0     -256.0135368475    -0.3688871259   0.089495080   0.022782312
   3  2  0     -256.0326957537    -0.0191589062   0.040276894   0.012721505
   4  3  0     -256.0358731749    -0.0031774212   0.014126733   0.003338879
   5  4  0     -256.0362057997    -0.0003326249   0.013543783   0.002159294
   6  5  0     -256.0363196997    -0.0001138999   0.008424878   0.000864206
   7  6  0     -256.0363513578    -0.0000316582   0.001020295   0.000166160
   8  7  0     -256.0363531685    -0.0000018106   0.000527882   0.000083826
   9  8  0     -256.0363534961    -0.0000003276   0.000186705   0.000033000
  10  9  0     -256.0363535335    -0.0000000374   0.000051007   0.000011803
  11 10  0     -256.0363535388    -0.0000000053   0.000010854   0.000003541
  12 11  0     -256.0363535391    -0.0000000003   0.000002658   0.000000595
  13 12  0     -256.0363535391    -0.0000000000   0.000000401   0.000000177

          -----------------
          DENSITY CONVERGED
          -----------------
     TIME TO FORM FOCK OPERATORS=       0.1 SECONDS (       0.0 SEC/ITER)
     TIME TO SOLVE SCF EQUATIONS=       0.0 SECONDS (       0.0 SEC/ITER)

 FINAL RHF ENERGY IS     -256.0363535391 AFTER  13 ITERATIONS

          ------------
          EIGENVECTORS
          ------------

                      1          2          3          4          5
                  -11.1236   -11.0836   -11.0637   -11.0493   -11.0458
                     A          A          A          A          A   
    1  C  1  S   -0.000555  -0.001113  -0.000440  -0.039314   0.991120
    2  C  1  S    0.000165   0.000026  -0.000164  -0.007155   0.037469
    3  C  1  X    0.000050  -0.000058  -0.000072   0.001816   0.000703
    4  C  1  Y    0.000215   0.000172   0.000081   0.002594  -0.000739
    5  C  1  Z    0.000017  -0.000161  -0.000025   0.002775   0.000354
    6  C  2  S   -0.000750  -0.003393  -0.000020   0.991162   0.040293
    7  C  2  S   -0.000047  -0.005835   0.000000   0.037155  -0.004225
    8  C  2  X   -0.000423  -0.001565  -0.000006   0.000758  -0.001687
    9  C  2  Y   -0.000079   0.003799  -0.000009   0.000084  -0.002697
   10  C  2  Z   -0.000036  -0.000920  -0.000005  -0.000048  -0.002819
   11  C  3  S   -0.002007   0.991953  -0.000177   0.004313   0.001369
   12  C  3  S   -0.005511   0.037250   0.000032  -0.005574  -0.000083
   13  C  3  X   -0.003610   0.000479   0.000082   0.001778   0.000046
   14  C  3  Y   -0.001145   0.000740  -0.000165  -0.003732  -0.000232
   15  C  3  Z   -0.001388   0.000841  -0.000105   0.001069  -0.000169
   16  C  4  S    0.003525  -0.000388  -0.001038  -0.001350  -0.001679
   17  C  4  S   -0.007613   0.000192   0.000142   0.000356  -0.006578
   18  C  4  X    0.000183  -0.000084  -0.000235  -0.000118   0.004038
   19  C  4  Y    0.004522  -0.000012   0.000074   0.000147  -0.001895
   20  C  4  Z    0.001217  -0.000067  -0.000137   0.000154   0.000812
   21  C  5  S    0.992273   0.002915   0.002080   0.000874   0.000691
   22  C  5  S    0.035451  -0.005980  -0.005855  -0.000010   0.000232
   23  C  5  X    0.000424   0.003972  -0.004122   0.000115   0.000173
   24  C  5  Y    0.002896   0.001365   0.001558  -0.000242   0.000005
   25  C  5  Z   -0.000318   0.001639   0.000028   0.000140  -0.000003
   26  C  6  S   -0.001172   0.000163   0.991959   0.000002   0.000463
   27  C  6  S   -0.005662   0.000047   0.037405  -0.000041  -0.000106
   28  C  6  X    0.003817  -0.000069  -0.000469   0.000042   0.000074
   29  C  6  Y   -0.001464  -0.000168  -0.000871   0.000023  -0.000068
   30  C  6  Z    0.000013  -0.000117   0.000690  -0.000028  -0.000020
   31  H  7  S   -0.000019   0.000046   0.000015   0.000290  -0.006821
   32  H  8  S   -0.000086  -0.000112  -0.000003   0.000389  -0.006680
   33  H  9  S    0.000093   0.000069   0.000026  -0.006794  -0.000264
   34  H 10  S   -0.000154   0.000144  -0.000001  -0.006664  -0.000160
   35  H 11  S    0.000066  -0.006563  -0.000075   0.000095  -0.000128
   36  H 12  S   -0.000225  -0.006817   0.000040  -0.000032   0.000011
   37  H 13  S    0.000111  -0.000020   0.000069  -0.000115   0.000117
   38  H 14  S   -0.000234  -0.000026  -0.006847  -0.000008  -0.000002
   39  H 15  S    0.000107   0.000016  -0.006534   0.000001  -0.000032
   40  H 16  S    0.000118  -0.000012  -0.006518  -0.000004  -0.000007
   41  B 17  S    0.000059  -0.000013   0.000137  -0.000007   0.000006
   42  B 17  S   -0.000178   0.000070  -0.000670   0.000037   0.000028
   43  B 17  X    0.000281  -0.000056  -0.000190  -0.000029   0.000050
   44  B 17  Y    0.000457  -0.000055   0.001064  -0.000001  -0.000029
   45  B 17  Z   -0.000153  -0.000048  -0.000430  -0.000002   0.000045
   46  H 18  S   -0.001584  -0.000383  -0.000080   0.000018   0.000014
   47  H 19  S   -0.000090  -0.000004  -0.000305   0.000019   0.000029
   48  H 20  S   -0.000000   0.000003   0.000287  -0.000000  -0.000034

                      6          7          8          9         10
                  -11.0178    -7.3829    -1.1361    -0.9974    -0.9422
                     A          A          A          A          A   
    1  C  1  S    0.002536   0.000022  -0.085897   0.085093   0.120741
    2  C  1  S   -0.006201   0.000077   0.217331  -0.232872  -0.342473
    3  C  1  X   -0.003993  -0.000031   0.030886   0.028953  -0.067517
    4  C  1  Y    0.001847   0.000067  -0.052478   0.034945   0.002947
    5  C  1  Z   -0.000754   0.000046  -0.010112   0.031828  -0.031947
    6  C  2  S    0.001515  -0.000006  -0.081189   0.116507  -0.038182
    7  C  2  S    0.000120   0.000069   0.205831  -0.322347   0.108362
    8  C  2  X   -0.000296   0.000000   0.042113  -0.025981  -0.003615
    9  C  2  Y    0.000087   0.000007  -0.014370   0.001106  -0.110772
   10  C  2  Z    0.000024  -0.000034   0.032814  -0.028575  -0.028567
   11  C  3  S    0.000452  -0.000016  -0.099769   0.058933  -0.153350
   12  C  3  S    0.000267   0.000041   0.261159  -0.160403   0.445475
   13  C  3  X    0.000089   0.000097   0.037318   0.057486   0.005444
   14  C  3  Y   -0.000069   0.000069   0.053624  -0.051227  -0.004297
   15  C  3  Z   -0.000015  -0.000111   0.024128   0.015910   0.005082
   16  C  4  S    0.991934   0.000483  -0.119995  -0.031896   0.121715
   17  C  4  S    0.037371  -0.002718   0.293341   0.085803  -0.335303
   18  C  4  X   -0.000902  -0.001762  -0.036814   0.075414   0.048278
   19  C  4  Y   -0.002146  -0.000654  -0.071055  -0.077428  -0.032873
   20  C  4  Z   -0.000812   0.002102  -0.038272  -0.000912   0.002776
   21  C  5  S   -0.002941   0.000091  -0.143038  -0.094433  -0.027961
   22  C  5  S   -0.008057  -0.000014   0.368776   0.265902   0.083467
   23  C  5  X    0.000011  -0.000152  -0.026765   0.142590  -0.067052
   24  C  5  Y   -0.004588  -0.000162   0.066648   0.003432  -0.139549
   25  C  5  Z   -0.001485   0.000183   0.004946   0.030821  -0.068128
   26  C  6  S    0.001147   0.000216  -0.056877  -0.144318  -0.033917
   27  C  6  S    0.000164  -0.000740   0.149421   0.400048   0.100807
   28  C  6  X   -0.000060  -0.000061  -0.044963  -0.048312  -0.016715
   29  C  6  Y   -0.000251  -0.001391   0.019905   0.018943  -0.019689
   30  C  6  Z   -0.000181   0.000725   0.003770   0.013940  -0.005907
   31  H  7  S   -0.000222  -0.000071   0.038456  -0.054415  -0.089068
   32  H  8  S    0.000016  -0.000186   0.033075  -0.051653  -0.089231
   33  H  9  S   -0.000022  -0.000139   0.036830  -0.070695   0.025631
   34  H 10  S   -0.000142  -0.000005   0.031624  -0.073818   0.031265
   35  H 11  S   -0.000074   0.000084   0.040999  -0.033450   0.123557
   36  H 12  S   -0.000025   0.000026   0.048776  -0.041397   0.123471
   37  H 13  S   -0.006269  -0.001044   0.049886   0.032832  -0.095679
   38  H 14  S   -0.000042  -0.000341   0.025727   0.094612   0.034071
   39  H 15  S   -0.000016  -0.000535   0.028049   0.099421   0.013631
   40  H 16  S   -0.000034  -0.000259   0.024192   0.086805   0.029043
   41  B 17  S    0.000372   0.990993  -0.012073  -0.012569   0.012754
   42  B 17  S   -0.002460   0.035593   0.022408   0.024871  -0.026668
   43  B 17  X    0.002252   0.000847  -0.007366  -0.001069   0.009642
   44  B 17  Y    0.000351   0.001319  -0.004334  -0.008844  -0.003536
   45  B 17  Z   -0.001617   0.000940   0.007482   0.007816  -0.012519
   46  H 18  S    0.000098  -0.002393   0.009822   0.009075   0.006691
   47  H 19  S    0.000343  -0.006347   0.004896   0.002662  -0.012010
   48  H 20  S   -0.000224  -0.006354   0.004552   0.011037  -0.004733

                     11         12         13         14         15
                   -0.8735    -0.7634    -0.6981    -0.6408    -0.6277
                     A          A          A          A          A   
    1  C  1  S   -0.073563   0.108267  -0.029541  -0.019608   0.018665
    2  C  1  S    0.218545  -0.337028   0.092667   0.064474  -0.066998
    3  C  1  X   -0.086873  -0.019161  -0.099198   0.058718   0.173480
    4  C  1  Y    0.011783  -0.085402  -0.039162   0.169557  -0.187423
    5  C  1  Z   -0.050130  -0.115934  -0.056683  -0.126207  -0.058096
    6  C  2  S   -0.106927  -0.121383   0.000717   0.016235   0.007589
    7  C  2  S    0.318801   0.382526  -0.002538  -0.053880  -0.025075
    8  C  2  X   -0.024893  -0.054340   0.066316   0.116518   0.229971
    9  C  2  Y    0.068727  -0.000239   0.113391   0.073597  -0.078601
   10  C  2  Z   -0.002492  -0.119903   0.055386  -0.150617   0.040601
   11  C  3  S    0.049378   0.070255   0.059645  -0.006681  -0.005005
   12  C  3  S   -0.145127  -0.222189  -0.197777   0.022367   0.010394
   13  C  3  X   -0.070850  -0.044251   0.198248   0.168434   0.030695
   14  C  3  Y    0.034770   0.142317   0.121417  -0.076731   0.192589
   15  C  3  Z   -0.050171  -0.073942   0.086297  -0.207526  -0.009703
   16  C  4  S    0.080569  -0.035517   0.085785   0.022273  -0.020887
   17  C  4  S   -0.228478   0.103504  -0.286245  -0.060943   0.066203
   18  C  4  X   -0.020817   0.132552  -0.152562   0.059502  -0.173365
   19  C  4  Y    0.091437  -0.132948  -0.185514   0.107442   0.030444
   20  C  4  Z    0.009286  -0.033460  -0.124066  -0.127052  -0.123155
   21  C  5  S    0.070860  -0.024033  -0.107481  -0.017911   0.059108
   22  C  5  S   -0.211874   0.070001   0.356124   0.070332  -0.211945
   23  C  5  X    0.138909   0.097757  -0.056100   0.055193  -0.239878
   24  C  5  Y   -0.118304   0.169222  -0.043036  -0.096608   0.138848
   25  C  5  Z   -0.017182   0.046918  -0.034734  -0.196546  -0.080997
   26  C  6  S   -0.142838   0.029771   0.014842   0.016141  -0.026288
   27  C  6  S    0.424091  -0.096999  -0.047264  -0.053252   0.093156
   28  C  6  X    0.052912  -0.028321  -0.148253  -0.093808   0.290896
   29  C  6  Y   -0.048121   0.081984  -0.019459   0.044153  -0.103776
   30  C  6  Z    0.009628   0.009623  -0.029842  -0.150743  -0.067228
   31  H  7  S    0.064641  -0.167656   0.032507  -0.079585  -0.133064
   32  H  8  S    0.077880  -0.137218   0.020234   0.172716  -0.134385
   33  H  9  S    0.094926   0.174327  -0.000947   0.129242   0.005493
   34  H 10  S    0.109881   0.167466  -0.043665  -0.099727  -0.183510
   35  H 11  S   -0.035559  -0.098004  -0.164902   0.160810  -0.077324
   36  H 12  S   -0.051060  -0.133412  -0.133378  -0.157893  -0.077230
   37  H 13  S   -0.059620   0.047865  -0.294095  -0.022530  -0.091531
   38  H 14  S    0.142455  -0.073174  -0.010056  -0.097335   0.064853
   39  H 15  S    0.133409  -0.012141  -0.118089  -0.104581   0.116365
   40  H 16  S    0.133117  -0.053537  -0.032245   0.049145   0.174196
   41  B 17  S    0.003434  -0.021165   0.059891  -0.101282  -0.030935
   42  B 17  S   -0.007652   0.050652  -0.144978   0.259749   0.079233
   43  B 17  X    0.011988  -0.007477  -0.010192  -0.000239   0.011394
   44  B 17  Y   -0.003808  -0.007643  -0.021632   0.021886   0.006292
   45  B 17  Z   -0.007232   0.013450  -0.034887  -0.001577  -0.008361
   46  H 18  S    0.000133   0.014223   0.003017   0.102697   0.025101
   47  H 19  S   -0.003264   0.012988  -0.071909   0.142401   0.041624
   48  H 20  S    0.006811   0.016878  -0.075135   0.124213   0.056101

                     16         17         18         19         20
                   -0.5961    -0.5534    -0.5488    -0.5262    -0.4959
                     A          A          A          A          A   
    1  C  1  S   -0.007596  -0.024380   0.009113   0.000426   0.014320
    2  C  1  S    0.028245   0.084990  -0.031228  -0.002505  -0.050500
    3  C  1  X   -0.168194  -0.050121   0.101461  -0.093800  -0.151071
    4  C  1  Y   -0.024764   0.102730   0.098381  -0.139038   0.117194
    5  C  1  Z    0.022573  -0.110952  -0.242589   0.254768   0.031679
    6  C  2  S    0.003448   0.020313  -0.006914  -0.007218  -0.009680
    7  C  2  S   -0.012109  -0.070050   0.023501   0.026359   0.034462
    8  C  2  X   -0.097650   0.134619   0.072451   0.055599   0.080596
    9  C  2  Y    0.008588   0.025402   0.120081  -0.090401   0.014720
   10  C  2  Z    0.183848  -0.009988  -0.064465  -0.016845  -0.048599
   11  C  3  S    0.003049  -0.020148   0.003374  -0.000439  -0.013436
   12  C  3  S   -0.009560   0.071931  -0.014511   0.003611   0.050507
[...]
 19   H            X -0.01220921 -0.00127202  0.00573615 -0.40656933  0.39340520
                   Y  0.00319605 -0.00414443  0.00209426  0.36851528 -0.35724871
                   Z  0.01307885 -0.00115154 -0.00025460 -0.41051242  0.39583168
 20   H            X -0.00352863  0.00117707  0.00225521  0.65813730  0.60556195
                   Y  0.00089110 -0.00416049  0.00361107  0.09874974  0.09129942
                   Z  0.01424082 -0.00399684 -0.00867506  0.22110042  0.20461256

 TRANS. SAYVETZ    X -0.00000043 -0.00000009  0.00000074 -0.00000002  0.00000000
                   Y -0.00000061  0.00000007 -0.00000030 -0.00000010 -0.00000000
                   Z  0.00000059 -0.00000017  0.00000044  0.00000017  0.00000004
               TOTAL  0.00000095  0.00000020  0.00000091  0.00000020  0.00000004

   ROT. SAYVETZ    X  0.00534194 -0.00001347  0.00886966  0.00429472 -0.01573379
                   Y -0.00672464 -0.00078692 -0.00501955 -0.00113327  0.00784102
                   Z -0.00108973  0.00227990  0.00435092  0.00295230  0.02972745
               TOTAL  0.00865706  0.00241193  0.01108140  0.00533339  0.03453628

                           51          52          53          54          55
       FREQUENCY:      3567.50     3596.04     3606.38     3629.40     3712.78  
        SYMMETRY:         A           A           A           A           A   
    REDUCED MASS:      1.03941     1.06704     1.06775     1.06815     1.10992
    IR INTENSITY:      0.01013     0.11596     0.02116     0.02245     0.02221

  1   C            X  0.00007305  0.03633306  0.00128580 -0.00187059 -0.01878006
                   Y -0.00008189 -0.03914532 -0.00115914  0.00204841 -0.07087876
                   Z -0.00008608 -0.04646595 -0.00117992  0.00701093  0.05406418
  2   C            X  0.00008399 -0.00456313 -0.00520291 -0.05251763  0.00561675
                   Y -0.00001041  0.00225365 -0.00188083  0.01534501  0.00268158
                   Z  0.00004649 -0.00023768 -0.00262367 -0.04491017 -0.00266252
  3   C            X  0.00009846 -0.00050598  0.02377890 -0.00088800  0.00063132
                   Y -0.00008016 -0.00224124  0.06682038 -0.00763851  0.00056828
                   Z  0.00015202  0.00016810 -0.00537929  0.00327902 -0.00196477
  4   C            X -0.00010544 -0.00000234 -0.00012829 -0.00027936  0.00212762
                   Y -0.00030460  0.00165706  0.00006117 -0.00014190  0.00192480
                   Z -0.00012026  0.00164831  0.00008544 -0.00042209  0.00314805
  5   C            X  0.00202120 -0.00043069 -0.00149788  0.00048447 -0.00035797
                   Y -0.00194091  0.00024021 -0.00079806 -0.00029375 -0.00010564
                   Z  0.00066207  0.00017634 -0.00118404  0.00015801  0.00008394
  6   C            X -0.02660235  0.00009927 -0.00017492  0.00001503  0.00019044
                   Y  0.03619868 -0.00004148 -0.00011006  0.00013529  0.00006086
                   Z -0.02716951  0.00003943  0.00031680 -0.00007336 -0.00010641
  7   H            X -0.00027566 -0.38315810 -0.01079583  0.03816037  0.27693786
                   Y -0.00023164 -0.12741257 -0.00311663  0.01310795  0.08522419
                   Z  0.00080071  0.65813240  0.01926995 -0.06026143 -0.47381932
  8   H            X -0.00022595 -0.03286486 -0.00120978 -0.00041689 -0.05030811
                   Y  0.00149887  0.55636640  0.01334747 -0.02069184  0.73906184
                   Z -0.00044444 -0.13472431 -0.00369767  0.00542717 -0.16781466
  9   H            X  0.00011050 -0.00358733 -0.00324327 -0.07811627 -0.00477079
                   Y  0.00038354 -0.01439971 -0.02405264 -0.31072143 -0.01347301
                   Z -0.00073976  0.03544873  0.03864614  0.59613710  0.01977228
 10   H            X -0.00108301  0.06034972  0.07452423  0.65559271 -0.05775230
                   Y -0.00027166  0.01111113  0.01694179  0.14129703 -0.01091357
                   Z  0.00017261 -0.00891542 -0.00954029 -0.10026274  0.00870792
 11   H            X -0.00017844 -0.00217130  0.04210578 -0.00355712 -0.00181241
                   Y -0.00070468  0.00922124 -0.21804258  0.00906645  0.00798086
                   Z -0.00128338  0.01834885 -0.45587507  0.01984356  0.01494627
 12   H            X  0.00000142  0.01034065 -0.31366819  0.03467369 -0.00625531
                   Y -0.00012314  0.01675594 -0.53173842  0.05227375 -0.01064242
                   Z  0.00009461 -0.01729732  0.53331797 -0.05397644  0.01079991
 13   H            X  0.00255432 -0.01522415 -0.00141520  0.00702843 -0.02875910
                   Y  0.00138318 -0.00920151 -0.00135404  0.00319706 -0.01319738
                   Z  0.00360350 -0.02023626 -0.00361481  0.00867609 -0.03914485
 14   H            X -0.23091149  0.00030321  0.00103461 -0.00053094 -0.00059097
                   Y -0.23957536  0.00035390  0.00068244 -0.00047690 -0.00064861
                   Z  0.56151064 -0.00080931 -0.00199622  0.00118625  0.00147519
 15   H            X  0.46202812 -0.00052335  0.00127581  0.00023044 -0.00164424
                   Y  0.21979512 -0.00039123  0.00007806  0.00010159 -0.00086465
                   Z  0.08742078 -0.00009880  0.00051202  0.00005141 -0.00036594
 16   H            X  0.05861272 -0.00006143  0.00023914  0.00000232 -0.00016886
                   Y -0.38282291  0.00066317 -0.00041306 -0.00049666  0.00101624
                   Z -0.33743578  0.00038011 -0.00036312 -0.00050784  0.00067178
 17   B            X  0.00008358 -0.00033394 -0.00025396 -0.00012690  0.00012837
                   Y -0.00013723  0.00010024  0.00003752  0.00020310 -0.00015105
                   Z  0.00001869  0.00016319  0.00000305 -0.00025203  0.00004674
 18   H            X -0.00046464  0.00036156 -0.00281496  0.00000099  0.00066150
                   Y -0.00010628  0.00041467 -0.00131006 -0.00001770  0.00048710
                   Z  0.00166930 -0.00037350  0.00135383  0.00004518 -0.00097636
 19   H            X  0.00011270  0.00087440  0.00097647  0.00323837 -0.00020004
                   Y  0.00009006 -0.00059156 -0.00060190 -0.00146606  0.00031124
                   Z  0.00030779  0.00038941  0.00047485  0.00230388 -0.00008765
 20   H            X -0.00029733  0.00072810  0.00071975  0.00062383 -0.00086189
                   Y -0.00003655 -0.00013305 -0.00016770  0.00003416  0.00016883
                   Z -0.00016830 -0.00013197  0.00012681  0.00032573 -0.00052738

 TRANS. SAYVETZ    X -0.00000061 -0.00000011 -0.00000004  0.00000036 -0.00000009
                   Y  0.00000075 -0.00000035  0.00000036 -0.00000022 -0.00000016
                   Z -0.00000033 -0.00000009 -0.00000014 -0.00000010  0.00000008
               TOTAL  0.00000102  0.00000038  0.00000039  0.00000043  0.00000020

   ROT. SAYVETZ    X -0.00029962 -0.00005688 -0.00039864 -0.00004385 -0.00005554
                   Y  0.00005155  0.00006995  0.00022734 -0.00004131  0.00040623
                   Z -0.00009594  0.00001122 -0.00054643  0.00003683 -0.00004214
               TOTAL  0.00031880  0.00009085  0.00071357  0.00007061  0.00041217

                           56          57          58          59          60
       FREQUENCY:      3737.57     3738.76     3740.85     3748.08     3769.18  
        SYMMETRY:         A           A           A           A           A   
    REDUCED MASS:      1.09770     1.10925     1.10740     1.11124     1.11031
    IR INTENSITY:      0.47425     0.03345     0.01274     0.01027     0.00995

  1   C            X  0.00284247 -0.00118898  0.00027229 -0.00161424  0.00003960
                   Y -0.00488989  0.00329417 -0.00014154 -0.00350154 -0.00005937
                   Z  0.00224713 -0.00078882  0.00010164  0.00398893  0.00009757
  2   C            X -0.00532049 -0.01355794 -0.00277425 -0.05901992  0.00010082
                   Y -0.00332932 -0.00618539 -0.00159217 -0.03689201  0.00007118
                   Z  0.00601310  0.01002604  0.00257174  0.05681012 -0.00005101
  3   C            X  0.00599514  0.01869629  0.00185370 -0.00437213  0.00011043
                   Y -0.00090535 -0.00492814 -0.00017414 -0.00046429 -0.00014616
                   Z -0.02634592 -0.08250856 -0.00850510  0.01815504  0.00046977
  4   C            X -0.04631363  0.01589037 -0.00419040  0.00195650 -0.00079457
                   Y -0.02395023  0.00805968 -0.00209237  0.00107060 -0.00012153
                   Z -0.06140748  0.02095166 -0.00529817  0.00251242 -0.00075384
  5   C            X  0.00036772  0.00129914 -0.00023254  0.00003665  0.00003754
                   Y  0.00331187 -0.00056595  0.00108072 -0.00050027  0.00057060
                   Z  0.00162198  0.00012150 -0.00032361 -0.00000444  0.00004279
  6   C            X -0.00634370 -0.00489377  0.06163662 -0.00124275 -0.03902513
                   Y -0.00120615 -0.00115099  0.01299318 -0.00025692 -0.06524019
                   Z  0.00773225  0.00415055 -0.06378312  0.00125984 -0.05115081
  7   H            X  0.00305550 -0.00050691 -0.00007778  0.02353134  0.00002210
                   Y  0.00194720 -0.00084494 -0.00000655  0.00471277  0.00009547
                   Z -0.00933624  0.00103080 -0.00043986 -0.04493037 -0.00030411
  8   H            X -0.00443001  0.00299809 -0.00029523 -0.00136974 -0.00007584
                   Y  0.04825565 -0.02844621  0.00209799  0.03875486  0.00087403
                   Z -0.01114655  0.00738693 -0.00041446 -0.00857269 -0.00017330
  9   H            X  0.00745573  0.01392163  0.00334928  0.06933747 -0.00013002
                   Y  0.02870001  0.04686096  0.01277931  0.30195394 -0.00024830
                   Z -0.05730235 -0.09377802 -0.02518557 -0.58078144  0.00060811
 10   H            X  0.05939928  0.13752822  0.02897870  0.62247935 -0.00047563
                   Y  0.01258498  0.02968484  0.00622355  0.13164391 -0.00019623
                   Z -0.00832985 -0.01903533 -0.00410781 -0.08970617  0.00009400
 11   H            X -0.01838325 -0.05825560 -0.00572866  0.01336877  0.00051265
                   Y  0.10586249  0.33311604  0.03345435 -0.06966196 -0.00121599
                   Z  0.21475592  0.67034863  0.06787479 -0.14060638 -0.00238119
 12   H            X -0.05635367 -0.17282237 -0.01899229  0.04395339  0.00075682
                   Y -0.09613312 -0.29372576 -0.03166973  0.08235513  0.00107352
                   Z  0.09568449  0.29230388  0.03138804 -0.07749831 -0.00119482
 13   H            X  0.51608749 -0.17390741  0.04496371 -0.01979840  0.00599605
                   Y  0.25109031 -0.08377376  0.02181976 -0.01014842  0.00319924
                   Z  0.68788816 -0.23208696  0.06026587 -0.02675207  0.00819090
 14   H            X  0.02849667  0.01704985 -0.24497598  0.00477767 -0.01957369
                   Y  0.02959347  0.01697605 -0.25270668  0.00517903 -0.02023317
                   Z -0.06957092 -0.04074510  0.59632873 -0.01199156  0.04012384
 15   H            X  0.04182382  0.03637985 -0.43797797  0.00923444  0.56202862
                   Y  0.01994051  0.01742517 -0.20907474  0.00434413  0.26619722
                   Z  0.00876831  0.00742940 -0.08949010  0.00186820  0.10614314
 16   H            X  0.00548213  0.00213953 -0.04073324  0.00076658 -0.07902850
                   Y -0.03773506 -0.01825419  0.29739136 -0.00567747  0.52328791
                   Z -0.03105812 -0.01622321  0.25641983 -0.00503588  0.46004135
 17   B            X -0.00001154 -0.00005102  0.00000676  0.00030393  0.00006731
                   Y  0.00043686 -0.00034317 -0.00016008 -0.00014700 -0.00014421
                   Z  0.00074566 -0.00041881  0.00009574  0.00021255 -0.00000672
 18   H            X -0.00276109  0.00323612 -0.00159444 -0.00020183  0.00004117
                   Y -0.00105156  0.00203112  0.00099845  0.00002313  0.00164735
                   Z  0.00698778 -0.00081967  0.00205290 -0.00082607 -0.00020412
 19   H            X -0.00067167 -0.00017838 -0.00061429 -0.00294864  0.00009397
                   Y  0.00090111  0.00017411  0.00024786  0.00087177  0.00002681
                   Z -0.00030277  0.00024971 -0.00006205 -0.00178580  0.00033390
 20   H            X  0.00165117 -0.00045307  0.00010979 -0.00136664 -0.00021026
                   Y  0.00001509  0.00010717  0.00024826  0.00001048  0.00012399
                   Z -0.00005154  0.00060921  0.00015350 -0.00065886  0.00015825

 TRANS. SAYVETZ    X  0.00000043 -0.00000009  0.00000012 -0.00000006 -0.00000001
                   Y -0.00000007 -0.00000002  0.00000001 -0.00000005 -0.00000003
                   Z -0.00000045  0.00000031  0.00000003  0.00000007  0.00000004
               TOTAL  0.00000062  0.00000033  0.00000012  0.00000010  0.00000005

   ROT. SAYVETZ    X  0.00301507 -0.00122495  0.00007910  0.00003011  0.00019937
                   Y -0.00960928  0.00311214 -0.00073973  0.00041470 -0.00013809
                   Z  0.00002287  0.00043161 -0.00029347 -0.00014457 -0.00003369
               TOTAL  0.01007122  0.00337227  0.00079974  0.00044021  0.00024485

 REFERENCE ON SAYVETZ CONDITIONS - A. SAYVETZ, J.CHEM.PHYS., 7, 383-389(1939).

 NOTE - THE MODES J,K ARE ORTHONORMALIZED ACCORDING TO
 SUM ON I   M(I) * (X(I,J)*X(I,K) + Y(I,J)*Y(I,K) + Z(I,J)*Z(I,K)) = DELTA(J,K)

  MODE FREQ(CM**-1)  SYMMETRY  RED. MASS  IR INTENS.
     1    1095.390    A        2.168140    3.691571
     2     522.659    A        1.212149    6.604865
     3       0.004    A        4.805548    0.000000
     4       0.002    A        4.805531    0.000000
     5       0.005    A        4.805527    0.000000
     6      44.525    A        3.200783    0.012154
     7      90.960    A        2.998550    0.009138
     8     139.273    A        2.697401    0.057653
     9     213.901    A        1.626644    0.006758
    10     242.679    A        1.181145    0.014299
    11     273.415    A        2.102014    0.013372
    12     320.617    A        2.689976    0.012309
    13     364.538    A        2.411065    0.067566
    14     420.055    A        3.276810    0.011746
    15     527.766    A        2.635484    0.521359
    16     640.261    A        2.400433    0.289417
    17     718.603    A        1.590244    0.592310
    18     733.649    A        1.292393    0.295396
    19     785.011    A        1.519215    0.340165
    20     910.670    A        1.247853    0.181193
    21     955.860    A        1.901099    0.314510
    22    1013.681    A        1.998319    0.020404
    23    1042.509    A        1.379847    0.158971
    24    1055.074    A        1.444445    1.532601
    25    1093.862    A        2.068103    0.029522
    26    1125.301    A        1.710621    0.076305
    27    1199.053    A        1.346454    0.304793
    28    1216.616    A        1.318074    1.600728
    29    1242.470    A        1.432008    0.907421
    30    1255.596    A        1.228782    4.563235
    31    1293.885    A        1.090194    0.451886
    32    1307.005    A        1.404620    1.446911
    33    1327.177    A        1.193672    1.719653
    34    1363.309    A        1.211491    0.117692
    35    1377.440    A        1.832165    0.052858
    36    1471.864    A        1.237069    0.029901
    37    1479.298    A        1.366171    0.038852
    38    1503.253    A        1.532357    0.095586
    39    1614.826    A        1.823783    0.265709
    40    1621.405    A        2.213629    0.121265
    41    1634.376    A        1.593777    0.048974
    42    1712.172    A        1.308224    0.082916
    43    1759.028    A        3.025817    0.403535
    44    1803.429    A        1.113694    0.014930
    45    1809.165    A        1.051325    0.041940
    46    1812.339    A        1.100027    0.020880
    47    1821.672    A        1.105489    0.003022
    48    1837.749    A        1.120632    0.015597
    49    3186.704    A        1.037085    0.033847
    50    3407.065    A        1.151300    0.173231
    51    3567.497    A        1.039413    0.010125
    52    3596.039    A        1.067042    0.115957
    53    3606.385    A        1.067750    0.021163
    54    3629.396    A        1.068152    0.022446
    55    3712.779    A        1.109921    0.022214
    56    3737.567    A        1.097703    0.474245
    57    3738.759    A        1.109250    0.033455
    58    3740.847    A        1.107402    0.012744
    59    3748.082    A        1.111241    0.010267
    60    3769.179    A        1.110315    0.009950

     -------------------------------
     THERMOCHEMISTRY AT T=  298.15 K
     -------------------------------

 USING IDEAL GAS, RIGID ROTOR, HARMONIC NORMAL MODE APPROXIMATIONS.
 P=  1.01325E+05 PASCAL.
 ALL FREQUENCIES ARE SCALED BY   1.00000
 THE MOMENTS OF INERTIA ARE (IN AMU*BOHR**2)
            509.98508           777.33992           931.38943
 THE ROTATIONAL SYMMETRY NUMBER IS  1.0
 THE ROTATIONAL CONSTANTS ARE (IN GHZ)
      3.53557     2.31956     1.93591
   2 IMAGINARY FREQUENCY VIBRATION(S) IS(ARE) EXCLUDED
     FROM THE FOLLOWING THERMOCHEMICAL ANALYSIS.
      9 -     60 VIBRATIONAL MODES ARE USED IN THERMOCHEMISTRY.
 THE HARMONIC ZERO POINT ENERGY IS (SCALED BY   1.000)
        0.203534 HARTREE/MOLECULE    44670.440279 CM**-1/MOLECULE 
      127.719326 KCAL/MOL              534.377660 KJ/MOL

               Q               LN Q
 ELEC.     1.00000E+00       0.000000
 TRANS.    3.70351E+07      17.427377
 ROT.      2.17516E+05      12.290028
 VIB.      7.24239E+00       1.979951
 TOT.      5.83427E+13      31.697356

              E         H         G         CV        CP        S
           KJ/MOL    KJ/MOL    KJ/MOL   J/MOL-K   J/MOL-K   J/MOL-K
 ELEC.      0.000     0.000     0.000     0.000     0.000     0.000
 TRANS.     3.718     6.197   -43.201    12.472    20.786   165.684
 ROT.       3.718     3.718   -30.466    12.472    12.472   114.656
 VIB.     543.662   543.662   529.469    78.450    78.450    47.603
 TOTAL    551.099   553.578   455.802   103.393   111.707   327.943
 VIB. THERMAL CORRECTION E(T)-E(0) = H(T)-H(0) =      9284.565 J/MOL

              E         H         G         CV        CP        S
         KCAL/MOL  KCAL/MOL  KCAL/MOL CAL/MOL-K CAL/MOL-K CAL/MOL-K
 ELEC.      0.000     0.000     0.000     0.000     0.000     0.000
 TRANS.     0.889     1.481   -10.325     2.981     4.968    39.600
 ROT.       0.889     0.889    -7.282     2.981     2.981    27.403
 VIB.     129.938   129.938   126.546    18.750    18.750    11.377
 TOTAL    131.716   132.308   108.939    24.712    26.699    78.380
 VIB. THERMAL CORRECTION E(T)-E(0) = H(T)-H(0) =      2219.064 CAL/MOL

     *******************************************************
     * THIS IS NOT A STATIONARY POINT ON THE MOLECULAR PES *
     *     THE VIBRATIONAL ANALYSIS IS NOT VALID !!!       *
     *******************************************************
 ......END OF NORMAL COORDINATE ANALYSIS......
 STEP CPU TIME =     0.01 TOTAL CPU TIME =        177.0 (      3.0 MIN)
 TOTAL WALL CLOCK TIME=        177.8 SECONDS, CPU UTILIZATION IS    99.58%
               580000  WORDS OF DYNAMIC MEMORY USED
 EXECUTION OF GAMESS TERMINATED NORMALLY Mon Nov 15 16:08:48 2021
 DDI: 263640 bytes (0.3 MB / 0 MWords) used by master data server.

 ----------------------------------------
 CPU timing information for all processes
 ========================================
 0: 173.909 + 3.159 = 177.68
 ----------------------------------------
 ddikick.x: exited gracefully.
----- accounting info -----
Files used on the master node chemcompute-node-0.novalocal were:
-rw-r--r--. 1 chemcomp chemcomp     1373 Nov 15 16:05 /scratch/306970/343004.F05
-rw-rw-r--. 1 chemcomp chemcomp  7920704 Nov 15 16:08 /scratch/306970/343004.F08
-rw-rw-r--. 1 chemcomp chemcomp 85196800 Nov 15 16:08 /scratch/306970/343004.F10
-rw-rw-r--. 1 chemcomp chemcomp   564960 Nov 15 16:08 /scratch/306970/343004.F18
Mon Nov 15 16:08:52 UTC 2021
0.122u 0.096s 3:01.82 0.1%	0+0k 8+216io 0pf+0w
Finishing Up...
Looking for IR data...
Looking for Raman data...
vibramans not found
Looking for thermodynamics data...
Looking for UV-Vis data...
306970
