----- GAMESS execution script 'rungms' -----
This job is running on host chemcompute-node-0.novalocal
under operating system Linux at Mon Nov 15 16:42:10 UTC 2021
SLURM has assigned the following compute nodes to this run:
chemcompute-node-0
Available scratch disk space (Kbyte units) at beginning of the job is
Filesystem     1K-blocks     Used Available Use% Mounted on
/dev/sda1       62903276 16840644  46062632  27% /
GAMESS temporary binary files will be written to /scratch/307097
GAMESS supplementary output files will be written to /data/slurm/343135
Copying input file 343135.inp to your run's scratch directory...
The generated host list is
chemcompute-node-0.novalocal

 Distributed Data Interface kickoff program.
 Initiating 1 compute processes on 1 nodes to run the following command:
 /data/gamess-2019R1-ddi/gamess.00.x 343135 

          ******************************************************
          *         GAMESS VERSION = 30 JUN 2019 (R1)          *
          *             FROM IOWA STATE UNIVERSITY             *
          * M.W.SCHMIDT, K.K.BALDRIDGE, J.A.BOATZ, S.T.ELBERT, *
          *   M.S.GORDON, J.H.JENSEN, S.KOSEKI, N.MATSUNAGA,   *
          *          K.A.NGUYEN, S.J.SU, T.L.WINDUS,           *
          *       TOGETHER WITH M.DUPUIS, J.A.MONTGOMERY       *
          *         J.COMPUT.CHEM.  14, 1347-1363(1993)        *
          **************** 64 BIT LINUX VERSION ****************

  SINCE 1993, STUDENTS AND POSTDOCS WORKING AT IOWA STATE UNIVERSITY
  AND ALSO IN THEIR VARIOUS JOBS AFTER LEAVING ISU HAVE MADE IMPORTANT
  CONTRIBUTIONS TO THE CODE:
     IVANA ADAMOVIC, CHRISTINE AIKENS, YURI ALEXEEV, POOJA ARORA,
     ANDREY ASADCHEV, ROB BELL, PRADIPTA BANDYOPADHYAY, JONATHAN BENTZ,
     COLLEEN BERTONI, BRETT BODE, KURT BRORSEN, CALEB CARLIN, GALINA CHABAN,
     WEI CHEN, CHEOL HO CHOI, PAUL DAY, ALBERT DEFUSCO, NUWAN DESILVA,
     TIM DUDLEY, DMITRI FEDOROV, ALEX FINDLATER, GRAHAM FLETCHER, 
     MARK FREITAG, KURT GLAESEMANN, ANASTASIA GUNINA,
     DAN KEMP, GRANT MERRILL, NORIYUKI MINEZAWA, JONATHAN MULLIN,
     TAKESHI NAGATA, SEAN NEDD, HEATHER NETZLOFF, BOSILJKA NJEGIC, RYAN OLSON,
     MIKE PAK, BUU PHAM,
     SPENCER PRUITT, LUKE ROSKOP, JIM SHOEMAKER, LYUDMILA SLIPCHENKO,
     TONY SMITH, SAROM SOK LEANG, JIE SONG, TETSUYA TAKETSUGU, SIMON WEBB,
     PENG XU, SOOHAENG YOO, FEDERICO ZAHARIEV

  ADDITIONAL CODE HAS BEEN PROVIDED BY COLLABORATORS IN OTHER GROUPS:
     IOWA STATE UNIVERSITY:
          JOE IVANIC, AARON WEST, LAIMUTIS BYTAUTAS, KLAUS RUEDENBERG
     UNIVERSITY OF TOKYO: KIMIHIKO HIRAO, TAKAHITO NAKAJIMA,
          TAKAO TSUNEDA, MUNEAKI KAMIYA, SUSUMU YANAGISAWA,
          KIYOSHI YAGI, MAHITO CHIBA, SEIKEN TOKURA, NAOAKI KAWAKAMI
     UNIVERSITY OF AARHUS: FRANK JENSEN
     UNIVERSITY OF IOWA: VISVALDAS KAIRYS, HUI LI
     NATIONAL INST. OF STANDARDS AND TECHNOLOGY: WALT STEVENS, DAVID GARMER
     UNIVERSITY OF PISA: BENEDETTA MENNUCCI, JACOPO TOMASI
     UNIVERSITY OF MEMPHIS: HENRY KURTZ, PRAKASHAN KORAMBATH
     UNIVERSITY OF ALBERTA: TOBY ZENG, MARIUSZ KLOBUKOWSKI
     UNIVERSITY OF NEW ENGLAND: MARK SPACKMAN
     MIE UNIVERSITY: HIROAKI UMEDA
     NAT. INST. OF ADVANCED INDUSTRIAL SCIENCE AND TECHNOLOGY: KAZUO KITAURA
     MICHIGAN STATE UNIVERSITY:
          KAROL KOWALSKI, MARTA WLOCH, JEFFREY GOUR, JESSE LUTZ,
          WEI LI, JUN SHEN, J. EMILIANO DEUSTUA, PIOTR PIECUCH
     UNIVERSITY OF MINNESOTA:
          YINAN SHU
     UNIVERSITY OF SILESIA: MONIKA MUSIAL, STANISLAW KUCHARSKI
     FACULTES UNIVERSITAIRES NOTRE-DAME DE LA PAIX:
          OLIVIER QUINET, BENOIT CHAMPAGNE
     UNIVERSITY OF CALIFORNIA - SANTA BARBARA: BERNARD KIRTMAN
     INSTITUTE FOR MOLECULAR SCIENCE:
          KAZUYA ISHIMURA, MICHIO KATOUDA, AND SHIGERU NAGASE
     UNIVERSITY OF NOTRE DAME: ANNA POMOGAEVA, DAN CHIPMAN
     KYUSHU UNIVERSITY:
          HARUYUKI NAKANO,
          FENG LONG GU, JACEK KORCHOWIEC, MARCIN MAKOWSKI, AND YURIKO AOKI,
          HIROTOSHI MORI AND EISAKU MIYOSHI
     PENNSYLVANIA STATE UNIVERSITY:
          TZVETELIN IORDANOV, CHET SWALINA, JONATHAN SKONE,
          SHARON HAMMES-SCHIFFER
     WASEDA UNIVERSITY:
          MASATO KOBAYASHI, TOMOKO AKAMA, TSUGUKI TOUMA,
          TAKESHI YOSHIKAWA, YASUHIRO IKABATA, JUNJI SEINO,
          YUYA NAKAJIMA, HIROMI NAKAI
     NANJING UNIVERSITY: SHUHUA LI
     UNIVERSITY OF NEBRASKA:
          PEIFENG SU, DEJUN SI, NANDUN THELLAMUREGE, YALI WANG, HUI LI
     UNIVERSITY OF ZURICH: ROBERTO PEVERATI, KIM BALDRIDGE
     N. COPERNICUS UNIVERSITY AND JACKSON STATE UNIVERSITY:
          MARIA BARYSZ
     UNIVERSITY OF COPENHAGEN: Jimmy Kromann, CASPER STEINMANN
     TOKYO INSTITUTE OF TECHNOLOGY: HIROYA NAKATA
     NAGOYA UNIVERSITY: YOSHIO NISHIMOTO, STEPHAN IRLE
     MOSCOW STATE UNIVERSITY: VLADIMIR MIRONOV
     A.N.NESMEYANOV INSTITUTE OF ORGANOELEMENT COMPOUNDS OF RUSSIAN ACADEMY OF SCIENCES:
          IGOR S. GERASIMOV

 EXECUTION OF GAMESS BEGUN Mon Nov 15 16:42:11 2021

            ECHO OF THE FIRST FEW INPUT CARDS -
 INPUT CARD>!File created by the GAMESS Input Deck Generator Plugin for Avogadro            
 INPUT CARD> $BASIS GBASIS=STO NGAUSS=3 $END                                                
 INPUT CARD> $CONTRL SCFTYP=RHF RUNTYP=SADPOINT NZVAR=1 mult=1 ICHARG=0 $END                
 INPUT CARD> $STATPT hssend=.t. OPTTOL=0.0005 NSTEP=50 $END                                 
 INPUT CARD> $STATPT HESS=calc ihrep=5 $END                                                 
 INPUT CARD> $FORCE nvib=2 $END                                                             
 INPUT CARD> $ZMAT DLC=.t. auto=.t. nonvdw(1)=4,17,5,18,17,18,4,5 $END                      
 INPUT CARD>!$ZMAT IFZMAT(1)=1,4,17,1,5,18,1,17,18 fvalue(1)=2.08,2.01,1.98 $END            
 INPUT CARD>                                                                                
 INPUT CARD> $DATA                                                                          
 INPUT CARD>Title                                                                           
 INPUT CARD>C1                                                                              
 INPUT CARD>C     6.0    -0.44931066     1.02056944     0.62962139                          
 INPUT CARD>C     6.0    -1.02331781     0.13023767    -0.50223494                          
 INPUT CARD>C     6.0    -0.15991099    -1.15311110    -0.47167164                          
 INPUT CARD>C     6.0     0.99179578     0.53706473     0.77943444                          
 INPUT CARD>C     6.0     1.19891286    -0.68981045     0.10318480                          
 INPUT CARD>C     6.0     2.19081664    -1.73482347     0.63488036                          
 INPUT CARD>H     1.0    -0.98902637     0.84899056     1.56183529                          
 INPUT CARD>H     1.0    -0.52849120     2.08059001     0.39679343                          
 INPUT CARD>H     1.0    -0.91174173     0.62747550    -1.46182251                          
 INPUT CARD>H     1.0    -2.07759476    -0.08966153    -0.35807881                          
 INPUT CARD>H     1.0    -0.08206264    -1.64142346    -1.43840051                          
 INPUT CARD>H     1.0    -0.57479507    -1.86975873     0.23793052                          
 INPUT CARD>H     1.0     1.60800755     0.83094567     1.61664414                          
 INPUT CARD>H     1.0     1.80630422    -2.13167644     1.57315469                          
 INPUT CARD>H     1.0     3.15986061    -1.28383887     0.82486784                          
 INPUT CARD>H     1.0     2.31431723    -2.55362129    -0.06635012                          
 INPUT CARD>B     5.0     2.11268306     0.93814182    -0.92618835                          
 INPUT CARD>H     1.0     2.07582045    -0.89113623    -1.68301260                          
 INPUT CARD>H     1.0     1.43729663     1.55766368    -1.62417293                          
 INPUT CARD>H     1.0     3.19548011     1.10881019    -0.56966305                          
 INPUT CARD> $END                                                                           
    1000000 WORDS OF MEMORY AVAILABLE

     BASIS OPTIONS
     -------------
     GBASIS=STO          IGAUSS=       3      POLAR=NONE    
     NDFUNC=       0     NFFUNC=       0     DIFFSP=       F
     NPFUNC=       0      DIFFS=       F     BASNAM=        


     RUN TITLE
     ---------
 Title                                                                           

 THE POINT GROUP OF THE MOLECULE IS C1      
 THE ORDER OF THE PRINCIPAL AXIS IS     0

 ATOM      ATOMIC                      COORDINATES (BOHR)
           CHARGE         X                   Y                   Z
 C           6.0    -0.8490740308        1.9285965930        1.1898119031
 C           6.0    -1.9337902593        0.2461135096       -0.9490864181
 C           6.0    -0.3021879535       -2.1790640124       -0.8913301558
 C           6.0     1.8742222600        1.0149051774        1.4729175170
 C           6.0     2.2656167886       -1.3035527340        0.1949909981
 C           6.0     4.1400431389       -3.2783409954        1.1997499154
 H           1.0    -1.8689888339        1.6043595246        2.9514407361
 H           1.0    -0.9987035549        3.9317450117        0.7498308564
 H           1.0    -1.7229420413        1.1857567590       -2.7624439866
 H           1.0    -3.9260848099       -0.1694357233       -0.6766708329
 H           1.0    -0.1550759034       -3.1018405692       -2.7181828245
 H           1.0    -1.0862051814       -3.5333316629        0.4496234869
 H           1.0     3.0386936557        1.5702596270        3.0550144443
 H           1.0     3.4134200263       -4.0282843661        2.9728313004
 H           1.0     5.9712707123       -2.4261036767        1.5587741937
 H           1.0     4.3734254134       -4.8256445145       -0.1253835461
 B           5.0     3.9923920823        1.7728309774       -1.7502421945
 H           1.0     3.9227318502       -1.6840032924       -3.1804326479
 H           1.0     2.7160967938        2.9435575362       -3.0692417944
 H           1.0     6.0385818071        2.0953474315       -1.0765070698

          INTERNUCLEAR DISTANCES (ANGS.)
          ------------------------------

                1 C          2 C          3 C          4 C          5 C     

   1 C       0.0000000    1.5502495 *  2.4538716 *  1.5274189 *  2.4329356 *
   2 C       1.5502495 *  0.0000000    1.5470583 *  2.4225745 *  2.4448561 *
   3 C       2.4538716 *  1.5470583 *  0.0000000    2.3975799 *  1.5464507 *
   4 C       1.5274189 *  2.4225745 *  2.3975799 *  0.0000000    1.4161334 *
   5 C       2.4329356 *  2.4448561 *  1.5464507 *  1.4161334 *  0.0000000  
   6 C       3.8160831    3.8861478    2.6624738 *  2.5729405 *  1.5357817 *
   7 H       1.0907590 *  2.1859020 *  2.9716988 *  2.1524649 *  3.0467438  
   8 H       1.0881737 *  2.2038556 *  3.3685169    2.2000357 *  3.2779947  
   9 H       2.1777288 *  1.0865095 *  2.1716668 *  2.9419147 *  2.9392776 *
  10 H       2.2044214 *  1.0865710 *  2.1957548 *  3.3328487    3.3628032  
  11 H       3.3908394    2.2138542 *  1.0858518 *  3.2890385    2.2187724 *
  12 H       2.9194460 *  2.1792208 *  1.0905264 *  2.9223676 *  2.1345899 *
  13 H       2.2897007 *  3.4502918    3.3798047    1.0802791 *  2.1841742 *
  14 H       3.9893242    4.1749561    3.0008177    2.9009645 *  2.1467914 *
  15 H       4.2865529    4.6108346    3.5663690    2.8316531 *  2.1723288 *
  16 H       4.5713078    4.3049857    2.8718495 *  3.4665191    2.1786831 *
  17 B       2.9985247 *  3.2660293    3.1216355    2.0800001 *  2.1318569 *
  18 H       3.9216300    3.4701727    2.5562615 *  3.0460651    2.0000000 *
  19 H       2.9878665 *  3.0579263    3.3507658    2.6490416 *  2.8445969 *
  20 H       3.8380424    4.3313285    4.0477821    2.6463525 *  2.7702060 *

                6 C          7 H          8 H          9 H         10 H     

   1 C       3.8160831    1.0907590 *  1.0881737 *  2.1777288 *  2.2044214 *
   2 C       3.8861478    2.1859020 *  2.2038556 *  1.0865095 *  1.0865710 *
   3 C       2.6624738 *  2.9716988 *  3.3685169    2.1716668 *  2.1957548 *
   4 C       2.5729405 *  2.1524649 *  2.2000357 *  2.9419147 *  3.3328487  
   5 C       1.5357817 *  3.0467438    3.2779947    2.9392776 *  3.3628032  
   6 C       0.0000000    4.2008025    4.6913431    4.4274697    4.6810107  
   7 H       4.2008025    0.0000000    1.7567733 *  3.0327460    2.3983576 *
   8 H       4.6913431    1.7567733 *  0.0000000    2.3901623 *  2.7711993 *
   9 H       4.4274697    3.0327460    2.3901623 *  0.0000000    1.7583370 *
  10 H       4.6810107    2.3983576 *  2.7711993 *  1.7583370 *  0.0000000  
  11 H       3.0778560    4.0032687    4.1738016    2.4159508 *  2.7490377 *
  12 H       2.7972102 *  3.0521974    3.9538129    3.0395513    2.4046580 *
  13 H       2.8083265 *  2.5976749 *  2.7593973 *  3.9834022    4.2814382  
  14 H       1.0888989 *  4.0863648    4.9576491    4.9205467    4.7941797  
  15 H       1.0856006 *  4.7228535    5.0106455    5.0457924    5.5005782  
  16 H       1.0850836 *  5.0140636    5.4563702    4.7406937    5.0443131  
  17 B       3.0964147    3.9772869    3.1672180    3.0871610    4.3517303  
  18 H       2.4693441 *  4.7906539    4.4653319    3.3586656    4.4326819  
  19 H       4.0634451    4.0669287    2.8674167 *  2.5317166 *  4.0830303  
  20 H       3.2475415    4.7032846    3.9681679    4.2304731    5.4116930  

               11 H         12 H         13 H         14 H         15 H     

   1 C       3.3908394    2.9194460 *  2.2897007 *  3.9893242    4.2865529  
   2 C       2.2138542 *  2.1792208 *  3.4502918    4.1749561    4.6108346  
   3 C       1.0858518 *  1.0905264 *  3.3798047    3.0008177    3.5663690  
   4 C       3.2890385    2.9223676 *  1.0802791 *  2.9009645 *  2.8316531 *
   5 C       2.2187724 *  2.1345899 *  2.1841742 *  2.1467914 *  2.1723288 *
   6 C       3.0778560    2.7972102 *  2.8083265 *  1.0888989 *  1.0856006 *
   7 H       4.0032687    3.0521974    2.5976749 *  4.0863648    4.7228535  
   8 H       4.1738016    3.9538129    2.7593973 *  4.9576491    5.0106455  
   9 H       2.4159508 *  3.0395513    3.9834022    4.9205467    5.0457924  
  10 H       2.7490377 *  2.4046580 *  4.2814382    4.7941797    5.5005782  
  11 H       0.0000000    1.7621033 *  4.2781122    3.5882784    3.9699265  
  12 H       1.7621033 *  0.0000000    3.7362124    2.7424548 *  3.8256307  
  13 H       4.2781122    3.7362124    0.0000000    2.9695694 *  2.7399765 *
  14 H       3.5882784    2.7424548 *  2.9695694 *  0.0000000    1.7637677 *
  15 H       3.9699265    3.8256307    2.7399765 *  1.7637677 *  0.0000000  
  16 H       2.9081375 *  2.9844974 *  3.8453396    1.7675097 *  1.7667938 *
  17 B       3.4254090    4.0573411    2.5946455 *  3.9704367    3.0166168  
  18 H       2.2976565 *  3.4166485    3.7512864    3.4948826    2.7602215 *
  19 H       3.5464239    4.3889824    3.3256814    4.8959474    4.1278522  
  20 H       4.3658649    4.8722741    2.7161033 *  4.1258007    2.7696127 *

               16 H         17 B         18 H         19 H         20 H     

   1 C       4.5713078    2.9985247 *  3.9216300    2.9878665 *  3.8380424  
   2 C       4.3049857    3.2660293    3.4701727    3.0579263    4.3313285  
   3 C       2.8718495 *  3.1216355    2.5562615 *  3.3507658    4.0477821  
   4 C       3.4665191    2.0800001 *  3.0460651    2.6490416 *  2.6463525 *
   5 C       2.1786831 *  2.1318569 *  2.0000000 *  2.8445969 *  2.7702060 *
   6 C       1.0850836 *  3.0964147    2.4693441 *  4.0634451    3.2475415  
   7 H       5.0140636    3.9772869    4.7906539    4.0669287    4.7032846  
   8 H       5.4563702    3.1672180    4.4653319    2.8674167 *  3.9681679  
   9 H       4.7406937    3.0871610    3.3586656    2.5317166 *  4.2304731  
  10 H       5.0443131    4.3517303    4.4326819    4.0830303    5.4116930  
  11 H       2.9081375 *  3.4254090    2.2976565 *  3.5464239    4.3658649  
  12 H       2.9844974 *  4.0573411    3.4166485    4.3889824    4.8722741  
  13 H       3.8453396    2.5946455 *  3.7512864    3.3256814    2.7161033 *
  14 H       1.7675097 *  3.9704367    3.4948826    4.8959474    4.1258007  
  15 H       1.7667938 *  3.0166168    2.7602215 *  4.1278522    2.7696127 *
  16 H       0.0000000    3.6017201    2.3311660 *  4.4831508    3.8004179  
  17 B       3.6017201    0.0000000    1.9800000 *  1.1520142 *  1.1526870 *
  18 H       2.3311660 *  1.9800000 *  0.0000000    2.5313624 *  2.5481308 *
  19 H       4.4831508    1.1520142 *  2.5313624 *  0.0000000    2.0987305 *
  20 H       3.8004179    1.1526870 *  2.5481308 *  2.0987305 *  0.0000000  

  * ... LESS THAN  3.000


     ATOMIC BASIS SET
     ----------------
 THE CONTRACTED PRIMITIVE FUNCTIONS HAVE BEEN UNNORMALIZED
 THE CONTRACTED BASIS FUNCTIONS ARE NOW NORMALIZED TO UNITY

  SHELL TYPE  PRIMITIVE        EXPONENT          CONTRACTION COEFFICIENT(S)

 C         

      1   S       1            71.6168373    0.154328967295
      1   S       2            13.0450963    0.535328142282
      1   S       3             3.5305122    0.444634542185

      2   L       4             2.9412494   -0.099967229187    0.155916274999
      2   L       5             0.6834831    0.399512826089    0.607683718598
      2   L       6             0.2222899    0.700115468880    0.391957393099

 C         

      3   S       7            71.6168373    0.154328967295
      3   S       8            13.0450963    0.535328142282
      3   S       9             3.5305122    0.444634542185

      4   L      10             2.9412494   -0.099967229187    0.155916274999
      4   L      11             0.6834831    0.399512826089    0.607683718598
      4   L      12             0.2222899    0.700115468880    0.391957393099

 C         

      5   S      13            71.6168373    0.154328967295
      5   S      14            13.0450963    0.535328142282
      5   S      15             3.5305122    0.444634542185

      6   L      16             2.9412494   -0.099967229187    0.155916274999
      6   L      17             0.6834831    0.399512826089    0.607683718598
      6   L      18             0.2222899    0.700115468880    0.391957393099

 C         

      7   S      19            71.6168373    0.154328967295
      7   S      20            13.0450963    0.535328142282
      7   S      21             3.5305122    0.444634542185

      8   L      22             2.9412494   -0.099967229187    0.155916274999
      8   L      23             0.6834831    0.399512826089    0.607683718598
      8   L      24             0.2222899    0.700115468880    0.391957393099

 C         

      9   S      25            71.6168373    0.154328967295
      9   S      26            13.0450963    0.535328142282
      9   S      27             3.5305122    0.444634542185

     10   L      28             2.9412494   -0.099967229187    0.155916274999
     10   L      29             0.6834831    0.399512826089    0.607683718598
     10   L      30             0.2222899    0.700115468880    0.391957393099

 C         

     11   S      31            71.6168373    0.154328967295
     11   S      32            13.0450963    0.535328142282
     11   S      33             3.5305122    0.444634542185

     12   L      34             2.9412494   -0.099967229187    0.155916274999
     12   L      35             0.6834831    0.399512826089    0.607683718598
     12   L      36             0.2222899    0.700115468880    0.391957393099

 H         

     13   S      37             3.4252509    0.154328967295
     13   S      38             0.6239137    0.535328142282
     13   S      39             0.1688554    0.444634542185

 H         

     14   S      40             3.4252509    0.154328967295
     14   S      41             0.6239137    0.535328142282
     14   S      42             0.1688554    0.444634542185

 H         

     15   S      43             3.4252509    0.154328967295
     15   S      44             0.6239137    0.535328142282
     15   S      45             0.1688554    0.444634542185

 H         

     16   S      46             3.4252509    0.154328967295
     16   S      47             0.6239137    0.535328142282
     16   S      48             0.1688554    0.444634542185

 H         

     17   S      49             3.4252509    0.154328967295
     17   S      50             0.6239137    0.535328142282
     17   S      51             0.1688554    0.444634542185

 H         

     18   S      52             3.4252509    0.154328967295
     18   S      53             0.6239137    0.535328142282
     18   S      54             0.1688554    0.444634542185

 H         

     19   S      55             3.4252509    0.154328967295
     19   S      56             0.6239137    0.535328142282
     19   S      57             0.1688554    0.444634542185

 H         

     20   S      58             3.4252509    0.154328967295
     20   S      59             0.6239137    0.535328142282
     20   S      60             0.1688554    0.444634542185

 H         

     21   S      61             3.4252509    0.154328967295
     21   S      62             0.6239137    0.535328142282
     21   S      63             0.1688554    0.444634542185

 H         

     22   S      64             3.4252509    0.154328967295
     22   S      65             0.6239137    0.535328142282
     22   S      66             0.1688554    0.444634542185

 B         

     23   S      67            48.7911132    0.154328967295
     23   S      68             8.8873622    0.535328142282
     23   S      69             2.4052670    0.444634542185

     24   L      70             2.2369561   -0.099967229187    0.155916274999
     24   L      71             0.5198205    0.399512826089    0.607683718598
     24   L      72             0.1690618    0.700115468880    0.391957393099

 H         

     25   S      73             3.4252509    0.154328967295
     25   S      74             0.6239137    0.535328142282
     25   S      75             0.1688554    0.444634542185

 H         

     26   S      76             3.4252509    0.154328967295
     26   S      77             0.6239137    0.535328142282
     26   S      78             0.1688554    0.444634542185

 H         

     27   S      79             3.4252509    0.154328967295
     27   S      80             0.6239137    0.535328142282
     27   S      81             0.1688554    0.444634542185

 TOTAL NUMBER OF BASIS SET SHELLS             =   27
 NUMBER OF CARTESIAN GAUSSIAN BASIS FUNCTIONS =   48
 NUMBER OF ELECTRONS                          =   54
 CHARGE OF MOLECULE                           =    0
 SPIN MULTIPLICITY                            =    1
 NUMBER OF OCCUPIED ORBITALS (ALPHA)          =   27
 NUMBER OF OCCUPIED ORBITALS (BETA )          =   27
 TOTAL NUMBER OF ATOMS                        =   20
 THE NUCLEAR REPULSION ENERGY IS      304.0094228571

     $CONTRL OPTIONS
     ---------------
 SCFTYP=RHF          RUNTYP=SADPOINT     EXETYP=RUN     
 MPLEVL=       0     CITYP =NONE         CCTYP =NONE         VBTYP =NONE    
 DFTTYP=NONE         TDDFT =NONE    
 MULT  =       1     ICHARG=       0     NZVAR =       1     COORD =UNIQUE  
 PP    =NONE         RELWFN=NONE         LOCAL =NONE         NUMGRD=       F
 ISPHER=      -1     NOSYM =       0     MAXIT =      30     UNITS =ANGS    
 PLTORB=       F     MOLPLT=       F     AIMPAC=       F     FRIEND=        
 NPRINT=       7     IREST =       0     GEOM  =INPUT   
 NORMF =       0     NORMP =       0     ITOL  =      20     ICUT  =       9
 INTTYP=BEST         GRDTYP=BEST         QMTTOL= 1.0E-06

     $SYSTEM OPTIONS
     ---------------
  REPLICATED MEMORY=     1000000 WORDS (ON EVERY NODE).
 DISTRIBUTED MEMDDI=           0 MILLION WORDS IN AGGREGATE,
 MEMDDI DISTRIBUTED OVER   1 PROCESSORS IS           0 WORDS/PROCESSOR.
 TOTAL MEMORY REQUESTED ON EACH PROCESSOR=     1000000 WORDS.
 TIMLIM=      525600.00 MINUTES, OR     365.0 DAYS.
 PARALL= F  BALTYP=  DLB     KDIAG=    0  COREFL= F
 MXSEQ2=     300 MXSEQ3=     150  mem10=         0

          ----------------
          PROPERTIES INPUT
          ----------------

     MOMENTS            FIELD           POTENTIAL          DENSITY
 IEMOM =       1   IEFLD =       0   IEPOT =       0   IEDEN =       0
 WHERE =COMASS     WHERE =NUCLEI     WHERE =NUCLEI     WHERE =NUCLEI  
 OUTPUT=BOTH       OUTPUT=BOTH       OUTPUT=BOTH       OUTPUT=BOTH    
 IEMINT=       0   IEFINT=       0                     IEDINT=       0
                                                       MORB  =       0
          EXTRAPOLATION IN EFFECT
          SOSCF IN EFFECT
 ORBITAL PRINTING OPTION: NPREO=     1    48     2     1

     -------------------------------
     INTEGRAL TRANSFORMATION OPTIONS
     -------------------------------
     NWORD  =            0
     CUTOFF = 1.0E-09     MPTRAN =       0
     DIRTRF =       F     AOINTS =DUP     

          ----------------------
          INTEGRAL INPUT OPTIONS
          ----------------------
 NOPK  =       1 NORDER=       0 SCHWRZ=       T


 -----------------------------------------------
  STATISTICS ON AUTOMATIC COORDINATE GENERATION 
 -----------------------------------------------
  NUMBER OF USER SPECIFIED BONDS                             4
  NUMBER OF BONDS                                           22
  NUMBER OF ANGLES                                          49
  NUMBER OF TORSIONS                                        69
  NUMBER OF EXTRA COORD.                                     0
  NUMBER OF EXTRA COORD. FOR CONSTRAINTS                     0
  NUMBER OF CONSTRAINED COORD.                               0

  TOTAL NUMBER OF PRIMITIVES                               140
 -----------------------------------------------

   --- ENCODED Z MATRIX ---
 COORD  TYPE   I   J   K   L   M   N
    1      1    1   7
    2      1    1   2
    3      1    1   8
    4      1    1   4
    5      1    2   3
    6      1    2  10
    7      1    2   9
    8      1    3  12
    9      1    3  11
   10      1    3   5
   11      1    4  13
   12      1    4   5
   13      1    4   5
   14      1    4  17
   15      1    5   6
   16      1    5  18
   17      1    6  15
   18      1    6  14
   19      1    6  16
   20      1   17  18
   21      1   17  20
   22      1   17  19
   23      2    1   2   3
   24      2    1   4   5
   25      2    1   4  17
   26      2    1   4  13
   27      2    1   2  10
   28      2    1   4   5
   29      2    1   2   9
   30      2    2   3   5
   31      2    2   3  11
   32      2    2   1   4
   33      2    2   1   7
   34      2    2   3  12
   35      2    2   1   8
   36      2    3   2   9
   37      2    3   2  10
   38      2    3   5  18
   39      2    3   5   6
   40      2    3   5   4
   41      2    3   5   4
   42      2    4   5   6
   43      2    4   1   7
   44      2    4   5  18
   45      2    4  17  19
   46      2    4  17  20
   47      2    4  17  18
   48      2    4   5   6
   49      2    4   5  18
   50      2    4   1   8
   51      2    5   4  17
   52      2    5   4  13
   53      2    5   4  13
   54      2    5   3  11
   55      2    5   3  12
   56      2    5   6  14
   57      2    5   6  15
   58      2    5   6  16
   59      2    5  18  17
   60      2    5   4  17
   61      2    6   5  18
   62      2    7   1   8
   63      2    9   2  10
   64      2   11   3  12
   65      2   13   4  17
   66      2   14   6  16
   67      2   14   6  15
   68      2   15   6  16
   69      2   18  17  19
   70      2   18  17  20
   71      2   19  17  20
   72      3    1   4   5  18
   73      3    1   2   3   5
   74      3    1   4   5   6
   75      3    1   2   3  11
   76      3    1   4   5   3
   77      3    1   2   3  12
   78      3    1   4  17  19
   79      3    1   4  17  20
   80      3    1   4  17  18
   81      3    2   1   4  17
   82      3    2   3   5  18
   83      3    2   1   4  13
   84      3    2   3   5   6
   85      3    2   3   5   4
   86      3    2   1   4   5
   87      3    3   2   1   4
   88      3    3   2   1   7
   89      3    3   2   1   8
   90      3    3   5   4  17
   91      3    3   5   4  13
   92      3    3   5   6  16
   93      3    3   5   6  14
   94      3    3   5   6  15
   95      3    3   5  18  17
   96      3    4  17  18   5
   97      3    4   5  18  17
   98      3    4   1   2  10
   99      3    4   5   6  16
  100      3    4   5   6  14
  101      3    4   5   6  15
  102      3    4   5   3  11
  103      3    4   5   3  12
  104      3    4   1   2   9
  105      3    5   4  17  18
  106      3    5   4   1   7
  107      3    5   4  17  20
  108      3    5   4  17  19
  109      3    5  18  17  19
  110      3    5  18  17  20
  111      3    5   4   1   8
  112      3    5   3   2   9
  113      3    5   3   2  10
  114      3    6   5   4  17
  115      3    6   5   4  13
  116      3    6   5  18  17
  117      3    6   5   3  11
  118      3    6   5   3  12
  119      3    7   1   2   9
  120      3    7   1   4  17
  121      3    7   1   2  10
  122      3    7   1   4  13
  123      3    8   1   4  17
  124      3    8   1   2  10
  125      3    8   1   4  13
  126      3    8   1   2   9
  127      3    9   2   3  12
  128      3    9   2   3  11
  129      3   10   2   3  12
  130      3   10   2   3  11
  131      3   11   3   5  18
  132      3   12   3   5  18
  133      3   13   4  17  18
  134      3   13   4  17  20
  135      3   13   4  17  19
  136      3   13   4   5  18
  137      3   14   6   5  18
  138      3   15   6   5  18
  139      3   16   6   5  18
  140      3   17   4   5  18

          INDEP./SYM. INTERNAL COORDINATES
          --------------------------------
 CRD  1=  -0.1019 (  4)  0.1041 (  5)  0.2349 ( 10)  0.3981 ( 39) -0.3098 ( 42)
          -0.3098 ( 48) -0.2428 ( 57)  0.2389 ( 58) -0.1884 ( 74) -0.1103 ( 81)
          -0.1083 ( 93) -0.1218 (114) -0.1530 (115)  0.3068 (116)
 CRD  2=   0.2059 (  4)  0.2070 ( 10)  0.2721 ( 25)  0.1412 ( 30)  0.2124 ( 38)
          -0.1167 ( 40) -0.1167 ( 41)  0.1259 ( 45)  0.1116 ( 56) -0.1066 ( 57)
          -0.2362 ( 61) -0.1480 ( 65)  0.2127 ( 72)  0.1008 ( 80) -0.1364 ( 82)
          -0.2784 ( 90)  0.1060 ( 95) -0.1578 (109) -0.1012 (110) -0.3050 (114)
           0.1605 (116)  0.1552 (136)
 CRD  3=  -0.1684 (  4) -0.1527 ( 10) -0.1389 ( 12) -0.1389 ( 13)  0.1010 ( 14)
          -0.5751 ( 15)  0.1329 ( 40)  0.1329 ( 41) -0.1401 ( 42) -0.1401 ( 48)
          -0.3347 ( 56) -0.1282 ( 57)  0.1560 ( 66)  0.1776 ( 67)  0.1256 ( 68)
           0.1202 ( 72)  0.1428 ( 74) -0.1680 ( 84)  0.1460 ( 95) -0.1094 (118)
 CRD  4=  -0.2108 ( 10) -0.2476 ( 14) -0.3539 ( 15)  0.1243 ( 23) -0.1384 ( 32)
          -0.1150 ( 36)  0.1059 ( 43)  0.1301 ( 47)  0.2034 ( 56) -0.2171 ( 57)
          -0.2640 ( 58) -0.1102 ( 59) -0.1490 ( 61)  0.1605 ( 68)  0.1187 ( 71)
          -0.2030 ( 74) -0.1127 ( 76)  0.2129 ( 84) -0.1488 ( 94)  0.1034 (111)
          -0.1072 (114)  0.1308 (117)  0.1178 (118)  0.1021 (139)
 CRD  5=  -0.1191 (  1) -0.2631 (  4)  0.3141 ( 10) -0.2395 ( 14)  0.1738 ( 20)
           0.1030 ( 26)  0.1143 ( 29) -0.1044 ( 30)  0.1830 ( 32) -0.1340 ( 33)
           0.1057 ( 38) -0.1095 ( 44) -0.1057 ( 46) -0.1095 ( 49) -0.1753 ( 50)
           0.1417 ( 51)  0.1836 ( 54)  0.1417 ( 60)  0.1065 ( 69)  0.1002 ( 70)
          -0.1424 ( 76)  0.2134 ( 81)  0.1707 ( 82)  0.1069 ( 85)  0.1105 ( 86)
           0.1429 (120)  0.1156 (123)  0.1196 (132) -0.1052 (137)
 CRD  6=  -0.1044 (  5)  0.1026 (  8)  0.1626 ( 10)  0.4836 ( 14)  0.2117 ( 23)
          -0.1943 ( 30) -0.1045 ( 32)  0.1422 ( 43)  0.1924 ( 45)  0.1699 ( 46)
          -0.1775 ( 47)  0.1625 ( 55)  0.2991 ( 56) -0.2022 ( 57)  0.1686 ( 59)
           0.1161 ( 68) -0.2145 ( 71) -0.1408 (109)  0.1282 (110)
 CRD  7=   0.2041 (  2)  0.1775 (  3)  0.3289 (  4) -0.1589 ( 10)  0.1191 ( 12)
           0.1191 ( 13)  0.1200 ( 15)  0.1080 ( 19)  0.1829 ( 23) -0.2473 ( 32)
           0.1219 ( 35) -0.1437 ( 36)  0.1235 ( 43)  0.1191 ( 50) -0.1469 ( 56)
          -0.1932 ( 57)  0.4398 ( 58) -0.1269 ( 62) -0.1164 ( 66)  0.1162 ( 67)
          -0.1052 ( 68)  0.1157 ( 81)  0.1338 ( 95)  0.1230 (108)
 CRD  8=   0.2810 (  2)  0.2108 (  4) -0.1335 (  5)  0.1014 (  7) -0.1321 (  9)
          -0.1605 ( 10) -0.1611 ( 12) -0.1611 ( 13) -0.2708 ( 23)  0.1504 ( 26)
           0.1761 ( 27)  0.1641 ( 29)  0.2589 ( 30) -0.1217 ( 31)  0.1756 ( 46)
          -0.1095 ( 47) -0.1329 ( 54)  0.2459 ( 56) -0.1646 ( 57) -0.1166 ( 63)
           0.1089 ( 64)  0.1038 ( 68)  0.1167 ( 78)  0.1134 ( 79)  0.1144 ( 82)
           0.1059 (109)  0.1280 (110)
 CRD  9=   0.4676 (  2)  0.1092 (  3)  0.1262 (  4)  0.1539 (  9)  0.3287 ( 10)
           0.1357 ( 17) -0.1127 ( 19)  0.3884 ( 57) -0.3295 ( 58)  0.1652 ( 66)
          -0.1353 ( 67)  0.1068 (127)
 CRD 10=   0.2516 (  2) -0.1660 (  4)  0.5244 (  5)  0.1293 (  6)  0.1127 (  9)
          -0.1133 ( 10) -0.1291 ( 23)  0.1475 ( 31)  0.1298 ( 34)  0.1143 ( 37)
          -0.1148 ( 39) -0.1216 ( 43) -0.1140 ( 55)  0.2600 ( 56) -0.2281 ( 57)
          -0.1274 ( 66)  0.1024 ( 75) -0.1068 (103) -0.1018 (126)
 CRD 11=  -0.1945 (  2)  0.2184 (  4)  0.3989 (  5)  0.1192 (  8)  0.1617 ( 14)
          -0.1229 ( 15) -0.1843 ( 27) -0.1807 ( 33)  0.1431 ( 34)  0.2506 ( 37)
           0.2003 ( 43)  0.1785 ( 46) -0.2340 ( 56)  0.1643 ( 57)  0.1366 ( 66)
          -0.1184 ( 76) -0.1101 ( 77)  0.1006 ( 85) -0.1574 ( 88)  0.1749 ( 98)
           0.1538 (110) -0.1237 (119)  0.1137 (124)
 CRD 12=  -0.1156 (  1) -0.2706 (  2)  0.1869 (  4)  0.1380 (  5)  0.1360 (  9)
          -0.1865 ( 14)  0.1092 ( 18) -0.1045 ( 22)  0.1122 ( 26) -0.1994 ( 29)
           0.1004 ( 31) -0.2055 ( 35)  0.1504 ( 36) -0.2490 ( 45)  0.2145 ( 50)
           0.2096 ( 56) -0.1622 ( 58)  0.1294 ( 68)  0.1258 ( 78) -0.1155 ( 84)
          -0.1072 ( 85)  0.1358 ( 89) -0.1661 (104)  0.2169 (109)  0.1034 (111)
          -0.1012 (119)  0.1316 (123)  0.1049 (124)  0.1044 (125)
 CRD 13=  -0.1098 (  2) -0.2414 ( 10) -0.2127 ( 11) -0.1367 ( 12) -0.1367 ( 13)
           0.1491 ( 15) -0.1210 ( 19) -0.1061 ( 21)  0.1432 ( 22) -0.1045 ( 42)
           0.2191 ( 45) -0.2805 ( 46) -0.1045 ( 48) -0.1184 ( 52) -0.1184 ( 53)
           0.1308 ( 56)  0.2379 ( 57) -0.1997 ( 58) -0.1837 ( 67)  0.1359 (108)
          -0.2610 (109) -0.3406 (110)  0.1312 (116)
 CRD 14=   0.1274 (  5)  0.2128 (  8) -0.1377 ( 16) -0.1070 ( 18)  0.1154 ( 19)
           0.2102 ( 20)  0.1866 ( 27) -0.1774 ( 29)  0.1471 ( 31)  0.1986 ( 36)
          -0.1037 ( 37) -0.2469 ( 54)  0.2550 ( 55) -0.1715 ( 56)  0.1114 ( 58)
           0.1169 ( 67)  0.1200 ( 70)  0.1322 ( 75)  0.1515 ( 77)  0.1164 ( 84)
          -0.1023 ( 86)  0.1196 ( 87) -0.1079 ( 92) -0.1086 ( 93) -0.1279 ( 94)
          -0.2385 (112) -0.2251 (113)  0.1413 (117)  0.1148 (118)
 CRD 15=  -0.2249 (  4) -0.1074 (  9) -0.1086 ( 10) -0.5518 ( 11)  0.1514 ( 21)
          -0.1074 ( 22)  0.1248 ( 24)  0.1125 ( 25) -0.1258 ( 26)  0.1248 ( 28)
           0.1159 ( 35) -0.2479 ( 45)  0.2313 ( 46)  0.1273 ( 69)  0.1166 (108)
           0.2081 (109)  0.1913 (110)  0.1024 (135)
 CRD 16=  -0.2620 (  1)  0.2923 (  6) -0.3570 (  7) -0.1696 (  9) -0.1979 ( 20)
          -0.1282 ( 21)  0.1638 ( 27) -0.1681 ( 29) -0.1383 ( 54)  0.1096 ( 55)
           0.2139 ( 75)  0.1995 ( 77)  0.1074 ( 79)  0.1058 ( 86) -0.1154 ( 87)
          -0.1102 ( 88) -0.1306 ( 89)  0.1425 ( 92)  0.1363 ( 93)  0.1393 ( 94)
           0.1646 ( 99)  0.1584 (100)  0.1614 (101) -0.1126 (112) -0.1026 (113)
           0.1139 (137)  0.1169 (138)  0.1201 (139)
 CRD 17=   0.2749 (  6) -0.3758 (  7) -0.2994 (  8)  0.1660 (  9)  0.1076 ( 20)
           0.1482 ( 21)  0.1080 ( 35) -0.1622 ( 36)  0.1462 ( 37)  0.1335 ( 43)
          -0.1869 ( 50)  0.1024 ( 70)  0.1455 ( 75)  0.1052 ( 77) -0.1074 ( 82)
          -0.1891 ( 88) -0.2160 ( 89) -0.1597 ( 92) -0.1572 ( 93) -0.1554 ( 94)
           0.1191 ( 98) -0.1413 ( 99) -0.1388 (100) -0.1370 (101)  0.1282 (104)
          -0.1049 (137) -0.1031 (138) -0.1074 (139)
 CRD 18=  -0.2286 (  1) -0.2436 (  4) -0.3396 ( 16) -0.1862 ( 18)  0.2001 ( 34)
          -0.1095 ( 38) -0.1137 ( 43)  0.1411 ( 46) -0.1027 ( 55)  0.1346 ( 57)
           0.1336 ( 58) -0.1647 ( 68) -0.1166 ( 72) -0.1149 ( 74)  0.1590 ( 79)
           0.1371 ( 80) -0.1205 ( 92) -0.1392 ( 93) -0.1462 ( 94)  0.1202 ( 95)
           0.1065 ( 97) -0.1387 (103) -0.1144 (115)  0.1014 (116) -0.1010 (131)
          -0.1614 (132)  0.1259 (133)  0.1478 (134) -0.1161 (136)
 CRD 19=  -0.3087 (  1)  0.3882 (  3) -0.1430 ( 16)  0.2726 ( 17)  0.2268 ( 18)
           0.2764 ( 19)  0.1374 ( 20)  0.1316 ( 22) -0.1054 ( 33)  0.1295 ( 35)
          -0.1075 ( 37) -0.1376 ( 56) -0.1049 ( 57) -0.1404 ( 58)  0.1468 ( 66)
           0.1214 ( 67)  0.1252 ( 68) -0.1148 ( 80)  0.1135 ( 83) -0.1613 ( 98)
          -0.1447 (104) -0.1068 (115)
 CRD 20=   0.2030 (  1) -0.2650 (  3) -0.1408 ( 11)  0.1311 ( 15) -0.1643 ( 16)
           0.3894 ( 17)  0.3025 ( 18)  0.3597 ( 19)  0.1673 ( 33) -0.1598 ( 35)
           0.1008 ( 37) -0.1566 ( 56) -0.1106 ( 58)  0.1399 ( 66)  0.1315 ( 67)
           0.1033 ( 68)  0.1405 (106)  0.1332 (111)  0.1632 (120)  0.1560 (123)
 CRD 21=  -0.2960 (  8)  0.2798 (  9) -0.3432 ( 16) -0.2610 ( 18)  0.1709 ( 20)
           0.2126 ( 22) -0.1080 ( 27)  0.1613 ( 31) -0.1826 ( 34) -0.1355 ( 47)
           0.1790 ( 69) -0.1052 ( 82)  0.1501 (102)  0.1646 (103)  0.1113 (112)
           0.1247 (113)  0.1856 (117)  0.2001 (118)  0.1279 (137)  0.1123 (138)
           0.1332 (139)
 CRD 22=  -0.1375 (  1) -0.1089 (  3) -0.1252 (  4) -0.1399 (  6)  0.1761 (  9)
           0.2508 ( 11)  0.1551 ( 15)  0.1750 ( 16)  0.1517 ( 17)  0.1543 ( 18)
           0.2059 ( 19) -0.2544 ( 21) -0.2445 ( 22)  0.1806 ( 31) -0.1188 ( 33)
          -0.1321 ( 34)  0.1145 ( 47)  0.1115 ( 78)  0.1530 ( 79)  0.1121 ( 80)
           0.1763 (102)  0.1708 (103)  0.1204 (117)  0.1149 (118) -0.1532 (120)
          -0.1346 (123)  0.1752 (131)  0.1696 (132)  0.1346 (134)
 CRD 23=   0.1557 ( 11)  0.1310 ( 16)  0.5761 ( 21)  0.6069 ( 22) -0.1220 ( 45)
           0.2409 ( 71)  0.1406 ( 79)  0.1108 (107)  0.1063 (109) -0.1130 (110)
           0.1440 (134)
 CRD 24=  -0.1214 (  6) -0.1043 ( 14) -0.2744 ( 16)  0.1795 ( 17)  0.2957 ( 21)
          -0.2088 ( 22) -0.1298 ( 33)  0.1032 ( 35)  0.1086 ( 43) -0.1899 ( 69)
           0.2009 ( 70) -0.1174 ( 78)  0.1066 ( 80)  0.1316 ( 93)  0.1292 ( 99)
           0.1768 (100)  0.1362 (101) -0.1387 (106) -0.1178 (107) -0.1628 (108)
          -0.1153 (111) -0.1221 (120) -0.1554 (122) -0.1320 (125) -0.1219 (134)
          -0.1669 (135)  0.2126 (137)  0.1720 (138)  0.1651 (139)
 CRD 25=   0.3898 (  3) -0.1473 (  6) -0.1537 (  7) -0.1590 (  9)  0.1011 ( 14)
           0.1513 ( 16)  0.1698 ( 17) -0.1237 ( 18)  0.2057 ( 21) -0.1474 ( 22)
           0.1069 ( 29) -0.1141 ( 35)  0.1133 ( 37) -0.1784 ( 43)  0.1184 ( 50)
          -0.1536 ( 69)  0.1435 ( 70) -0.1084 ( 72) -0.1024 ( 78) -0.1164 ( 79)
           0.1192 ( 88) -0.1125 (107)  0.1171 (111)  0.1634 (119)  0.2021 (121)
           0.1361 (124)  0.1073 (125)  0.1336 (127)  0.1359 (128)  0.1093 (131)
          -0.1161 (136)
 CRD 26=  -0.5395 ( 17)  0.5136 ( 19)  0.3037 ( 66) -0.2815 ( 67)  0.1416 ( 92)
          -0.1807 ( 93)  0.1144 ( 94)  0.1535 ( 99) -0.1688 (100)  0.1263 (101)
          -0.1697 (137)  0.1254 (138)  0.1526 (139)
 CRD 27=   0.1232 (  6)  0.1115 (  7)  0.2397 ( 17) -0.6098 ( 18)  0.3402 ( 19)
          -0.1387 ( 66) -0.1916 ( 67)  0.3308 ( 68) -0.1551 ( 92)  0.1956 ( 94)
          -0.1720 ( 99)  0.1788 (101)  0.1790 (138) -0.1718 (139)
 CRD 28=   0.2177 (  1) -0.4211 (  6) -0.4841 (  7)  0.3692 (  8)  0.3555 (  9)
          -0.1317 ( 18) -0.1684 ( 63)  0.1348 ( 64) -0.1085 (126) -0.1609 (129)
 CRD 29=  -0.3545 (  1) -0.1777 (  3)  0.2812 (  6)  0.1868 (  7)  0.4334 (  8)
           0.4453 (  9) -0.1002 ( 36)  0.1037 ( 50) -0.1162 ( 62)  0.1764 ( 64)
           0.1626 (126)  0.1274 (130)  0.1025 (132)
 CRD 30=  -0.4789 (  1) -0.4618 (  3)  0.1084 (  4) -0.3439 (  6) -0.2474 (  7)
          -0.1528 (  8) -0.2008 (  9)  0.1013 ( 33) -0.2153 ( 62) -0.1184 ( 63)
           0.1023 (106) -0.1258 (119)  0.1208 (120)  0.1033 (122)  0.1376 (124)
           0.1005 (127)
 CRD 31=  -0.1579 (  1)  0.1389 (  3)  0.2577 (  8) -0.2309 (  9) -0.1276 ( 11)
          -0.1245 ( 14) -0.2585 ( 16) -0.1673 ( 20)  0.1031 ( 22) -0.1198 ( 27)
           0.1236 ( 29) -0.1161 ( 36)  0.1167 ( 37)  0.1036 ( 55) -0.1146 ( 70)
           0.1324 ( 77)  0.1268 ( 79)  0.1116 ( 98)  0.1086 (104) -0.1288 (106)
          -0.1075 (111)  0.1115 (112)  0.1008 (113)  0.1214 (119) -0.1174 (120)
           0.1244 (121) -0.1136 (122)  0.1286 (124)  0.1256 (126)  0.2215 (127)
           0.1798 (128)  0.2109 (129)  0.1691 (130)  0.1040 (136)
 CRD 32=   0.2558 (  8) -0.1947 (  9)  0.2310 ( 11)  0.1149 ( 12)  0.1149 ( 13)
           0.1301 ( 16)  0.4834 ( 20)  0.1072 ( 44) -0.1094 ( 45)  0.1072 ( 49)
           0.1601 ( 69)  0.1261 ( 70)  0.1643 ( 78) -0.1299 ( 82)  0.1034 ( 94)
           0.1545 (108) -0.1006 (117) -0.1666 (131) -0.1336 (132)  0.2286 (135)
           0.1393 (137)  0.1828 (138)  0.1589 (139)
 CRD 33=   0.1350 (  1) -0.1179 (  3) -0.2807 (  6)  0.3009 (  7) -0.1072 ( 54)
           0.1083 ( 73)  0.1916 ( 75)  0.1560 ( 77) -0.1305 ( 87) -0.1778 ( 88)
          -0.1957 ( 89) -0.1801 ( 98) -0.1609 (104)  0.1058 (106)  0.1224 (112)
           0.1401 (113) -0.2082 (119) -0.2275 (121) -0.2453 (124) -0.2261 (126)
           0.1701 (127)  0.2057 (128)  0.1879 (129)  0.2234 (130)
 CRD 34=   0.1176 (  1) -0.1036 (  7)  0.1176 (  8) -0.1136 ( 10)  0.4228 ( 11)
          -0.1224 ( 12) -0.1224 ( 13) -0.1370 ( 16)  0.1952 ( 17)  0.1593 ( 18)
           0.1398 ( 19) -0.1320 ( 22)  0.1672 ( 56)  0.1768 ( 57)  0.1301 ( 58)
          -0.1407 ( 66) -0.1783 ( 67) -0.1676 ( 68)  0.1465 ( 72) -0.1040 ( 80)
          -0.1072 ( 97)  0.1364 (109)  0.1017 (122) -0.1149 (127) -0.1745 (133)
          -0.1228 (134) -0.1233 (135)  0.1298 (136)
 CRD 35=   0.1413 (  3) -0.1340 (  6)  0.1005 (  7) -0.1170 (  8) -0.1352 ( 10)
           0.3214 ( 11) -0.1174 ( 14)  0.1419 ( 15) -0.1257 ( 18) -0.2006 ( 19)
           0.1325 ( 21)  0.1189 ( 33)  0.1016 ( 35)  0.1029 ( 39) -0.1227 ( 44)
           0.1075 ( 46) -0.1227 ( 49) -0.1098 ( 50) -0.1375 ( 56) -0.1633 ( 58)
           0.1303 ( 64) -0.1566 ( 65)  0.1910 ( 66)  0.1223 ( 68) -0.1438 ( 83)
           0.1521 ( 91) -0.1075 (102) -0.1001 (111)  0.1434 (120) -0.1825 (125)
          -0.1323 (127)  0.1469 (136) -0.1257 (137)
 CRD 36=  -0.1907 (  1)  0.1049 (  3) -0.1690 (  6)  0.1799 (  7) -0.1660 (  8)
           0.1846 (  9) -0.1237 ( 11) -0.1244 ( 15)  0.3768 ( 16)  0.1161 ( 17)
           0.1675 ( 19)  0.2256 ( 20)  0.1042 ( 21)  0.1507 ( 26)  0.1281 ( 45)
           0.1260 ( 46)  0.1128 ( 47)  0.1142 ( 57)  0.1343 ( 58) -0.1325 ( 59)
          -0.1279 ( 65) -0.1679 ( 68) -0.1755 ( 71)  0.1409 ( 91) -0.1338 (109)
           0.1845 (110)  0.1005 (115) -0.1365 (132)  0.1905 (136)
 CRD 37=  -0.1498 (  1)  0.1194 (  3) -0.1797 (  6)  0.1803 (  7) -0.1755 (  8)
           0.1761 (  9) -0.1127 ( 12) -0.1127 ( 13)  0.4525 ( 14)  0.1142 ( 16)
          -0.2363 ( 20) -0.1305 ( 21) -0.1200 ( 22) -0.2391 ( 45) -0.2370 ( 46)
           0.1220 ( 59)  0.1421 ( 69)  0.1354 ( 70)  0.2182 ( 71)  0.2507 (109)
          -0.2494 (110)
 CRD 38=   0.1779 (  3) -0.4371 ( 15) -0.1150 ( 16)  0.1858 ( 17)  0.1707 ( 18)
           0.1061 ( 22) -0.1050 ( 26) -0.1157 ( 31) -0.1213 ( 34)  0.1198 ( 36)
           0.1493 ( 37)  0.1008 ( 43)  0.1207 ( 52)  0.1207 ( 53)  0.1626 ( 56)
           0.1717 ( 57)  0.1522 ( 58) -0.1200 ( 62)  0.1155 ( 64) -0.1393 ( 66)
          -0.2132 ( 67) -0.1481 ( 68) -0.1199 ( 88)  0.1307 ( 98)  0.1038 (103)
          -0.1017 (117) -0.2116 (119)  0.1395 (124)  0.1620 (132)  0.1545 (133)
           0.1087 (134)  0.1253 (135)
 CRD 39=   0.2252 (  2) -0.3189 (  5) -0.1144 (  6) -0.1315 (  9)  0.2795 ( 10)
           0.1450 ( 15) -0.1825 ( 21)  0.1780 ( 22) -0.1593 ( 27) -0.1968 ( 29)
           0.1280 ( 31)  0.1124 ( 37) -0.1310 ( 54) -0.1969 ( 55)  0.1318 ( 63)
           0.1049 ( 75) -0.1590 ( 77)  0.1028 (102) -0.1549 (112)  0.1487 (113)
           0.1038 (122) -0.3371 (127)  0.2304 (130)
 CRD 40=   0.1966 (  2) -0.2264 (  4) -0.1245 (  5)  0.1361 ( 15) -0.1051 ( 17)
           0.3074 ( 21) -0.3521 ( 22) -0.1176 ( 27)  0.1727 ( 36)  0.1513 ( 37)
          -0.1142 ( 46) -0.1027 ( 63)  0.1218 ( 67)  0.1256 ( 69) -0.1324 ( 70)
           0.1268 ( 98) -0.1426 (104)  0.1063 (107) -0.1041 (110)  0.1055 (118)
          -0.2310 (119)  0.1659 (124) -0.1035 (126) -0.1168 (131) -0.1662 (133)
 CRD 41=   0.1607 (  2) -0.2415 (  4)  0.1185 (  6) -0.1131 ( 10)  0.1679 ( 12)
           0.1679 ( 13)  0.2201 ( 17) -0.1298 ( 18) -0.1326 ( 19) -0.1702 ( 33)
          -0.1627 ( 35)  0.1394 ( 43)  0.1883 ( 50)  0.1999 ( 66)  0.1136 ( 72)
           0.1495 ( 89)  0.1148 ( 92) -0.1248 ( 93)  0.1814 ( 99) -0.1501 (106)
           0.1173 (112) -0.1331 (119) -0.1249 (120) -0.1128 (121) -0.1702 (122)
           0.1039 (123)  0.1052 (124)  0.1716 (128) -0.1077 (129)  0.1246 (136)
          -0.1917 (137)
 CRD 42=  -0.1035 (  1) -0.1293 (  6)  0.1032 (  7)  0.1851 ( 10) -0.1883 ( 16)
           0.2472 ( 18) -0.1357 ( 19)  0.2177 ( 21) -0.2285 ( 22) -0.1011 ( 26)
           0.1115 ( 27)  0.1329 ( 31) -0.1196 ( 35) -0.1102 ( 36)  0.1065 ( 43)
           0.1051 ( 45) -0.1621 ( 54) -0.1299 ( 67)  0.1712 ( 68) -0.1058 ( 70)
          -0.1004 ( 88)  0.2048 ( 94) -0.1020 ( 95) -0.1445 ( 99)  0.1208 (101)
           0.1071 (102)  0.1337 (104)  0.1319 (111) -0.1260 (113)  0.1044 (123)
           0.1234 (125)  0.1171 (126) -0.1081 (127) -0.1786 (129)  0.1318 (134)
           0.1478 (138) -0.1175 (139)
 CRD 43=  -0.1312 (  4)  0.1333 ( 11) -0.1931 ( 12) -0.1931 ( 13) -0.1306 ( 14)
           0.1255 ( 15) -0.1149 ( 17) -0.3594 ( 20)  0.2049 ( 22)  0.1141 ( 43)
           0.1327 ( 69)  0.1753 ( 70) -0.3228 ( 71)  0.1678 ( 78) -0.2318 ( 79)
          -0.2097 (107)  0.1899 (108)  0.1195 (110) -0.1236 (119) -0.1830 (134)
           0.2167 (135)
 CRD 44=  -0.1074 (  1)  0.1024 (  3) -0.1578 (  4)  0.1633 (  7) -0.1576 ( 10)
           0.2078 ( 15)  0.1615 ( 18) -0.1505 ( 19)  0.1494 ( 20) -0.2429 ( 21)
           0.1367 ( 22)  0.1100 ( 25) -0.1063 ( 45)  0.1233 ( 55) -0.1447 ( 63)
           0.1758 ( 68) -0.1272 ( 69)  0.1153 ( 71) -0.1226 ( 78) -0.1521 ( 90)
           0.1388 ( 94)  0.1222 ( 95)  0.1486 ( 98) -0.1296 ( 99) -0.1435 (108)
           0.1300 (109)  0.1021 (111) -0.1355 (113)  0.1092 (123)  0.1356 (125)
          -0.1540 (130) -0.2076 (135)  0.1344 (138)
 CRD 45=  -0.1190 (  1)  0.2187 (  2) -0.1790 (  3)  0.1395 (  5) -0.1448 (  9)
          -0.1081 ( 11)  0.1786 ( 12)  0.1786 ( 13) -0.2187 ( 20) -0.1163 ( 34)
          -0.1005 ( 51) -0.1005 ( 60)  0.2401 ( 62)  0.1318 ( 64)  0.1042 ( 70)
          -0.1390 ( 71)  0.1364 ( 78) -0.1109 ( 79)  0.1162 ( 88) -0.1330 ( 89)
           0.1519 (103) -0.1391 (107)  0.1082 (108)  0.1266 (111)  0.1547 (118)
           0.1522 (119) -0.1978 (120)  0.1497 (121)  0.1236 (125) -0.1265 (127)
           0.1320 (132) -0.1009 (133) -0.2349 (134)
 CRD 46=   0.1116 (  4) -0.1504 (  5)  0.1737 (  9)  0.2502 ( 17) -0.2854 ( 19)
           0.1032 ( 35) -0.1184 ( 39) -0.1523 ( 57)  0.1494 ( 58) -0.1375 ( 64)
           0.2027 ( 66) -0.2086 ( 67)  0.1339 ( 77)  0.1051 ( 78)  0.1062 ( 92)
          -0.2222 ( 93)  0.1354 ( 94) -0.2342 (100)  0.1234 (101) -0.1348 (116)
           0.1004 (121) -0.1269 (123)  0.1652 (129) -0.1099 (132) -0.2120 (137)
           0.1456 (138)  0.1164 (139)
 CRD 47=   0.2296 (  1) -0.1763 (  3) -0.2752 (  8)  0.1015 (  9) -0.1082 ( 14)
          -0.1204 ( 29) -0.1099 ( 31) -0.1576 ( 33)  0.1353 ( 50) -0.1192 ( 54)
           0.1426 ( 64)  0.2488 ( 75)  0.1305 ( 81)  0.1547 ( 83)  0.1796 ( 89)
          -0.1482 ( 91) -0.1927 (102) -0.1232 (106) -0.1174 (111) -0.1033 (112)
          -0.1450 (115) -0.1718 (117)  0.1164 (121)  0.2165 (124)  0.1736 (126)
           0.1383 (128)  0.1595 (130) -0.1595 (131) -0.1195 (136)
 CRD 48=  -0.1764 (  5)  0.1780 (  6) -0.1478 (  7)  0.1096 (  9)  0.1373 ( 12)
           0.1373 ( 13)  0.1799 ( 14) -0.1148 ( 15) -0.1293 ( 17)  0.2071 ( 18)
           0.1182 ( 26) -0.1177 ( 27)  0.1479 ( 34)  0.1413 ( 36)  0.1314 ( 39)
          -0.1045 ( 56)  0.1046 ( 57) -0.1216 ( 66)  0.1367 ( 68) -0.1591 ( 74)
           0.1085 ( 82) -0.1265 ( 83)  0.1477 ( 84)  0.1261 ( 88)  0.1525 ( 91)
          -0.1837 ( 92) -0.1193 ( 99)  0.1489 (101) -0.1102 (103) -0.1511 (104)
           0.1536 (117) -0.1651 (125) -0.1353 (126)  0.1251 (129)  0.1268 (130)
           0.1144 (131) -0.1747 (139)
 CRD 49=  -0.1836 (  2)  0.1923 (  4) -0.2199 (  5)  0.1819 (  6)  0.1767 (  7)
           0.1269 ( 10)  0.2268 ( 23)  0.1300 ( 31) -0.1103 ( 32)  0.1324 ( 35)
          -0.2861 ( 63) -0.1241 ( 77)  0.1496 ( 88)  0.1723 ( 98) -0.1785 (104)
           0.1656 (112) -0.1544 (113)  0.3155 (121) -0.2765 (126)  0.2356 (128)
          -0.2722 (129)
 CRD 50=  -0.2522 (  2)  0.1380 (  3)  0.2060 (  5) -0.1698 (  9)  0.1740 ( 10)
           0.1201 ( 26)  0.1200 ( 29) -0.1740 ( 30)  0.1154 ( 32) -0.1448 ( 37)
          -0.1224 ( 39) -0.1610 ( 62)  0.2077 ( 64) -0.1649 ( 77)  0.1051 ( 78)
          -0.1456 ( 93)  0.1495 (103)  0.1514 (106)  0.1295 (112)  0.2018 (118)
          -0.1582 (121)  0.1172 (122) -0.1587 (123) -0.1186 (125)  0.2224 (128)
          -0.1837 (129) -0.1297 (131)  0.1091 (132)
 CRD 51=  -0.1497 (  1)  0.1427 (  2)  0.1051 (  6) -0.1319 (  7)  0.1245 ( 10)
           0.1355 ( 11) -0.2812 ( 12) -0.2812 ( 13)  0.1281 ( 24) -0.1723 ( 26)
          -0.1160 ( 27)  0.1281 ( 28) -0.1541 ( 32)  0.1482 ( 62) -0.1230 ( 73)
          -0.1212 ( 77) -0.1597 ( 78) -0.1131 ( 80) -0.1217 ( 83)  0.1096 ( 84)
           0.1255 ( 87)  0.1343 ( 88) -0.1108 (106)  0.1228 (111) -0.1410 (122)
           0.2392 (123) -0.1678 (124) -0.1693 (126)  0.1311 (128)  0.1646 (130)
           0.1278 (134)
 CRD 52=   0.2211 (  4) -0.2222 ( 10) -0.1525 ( 11)  0.2097 ( 15) -0.1665 ( 24)
          -0.1665 ( 28)  0.1846 ( 40)  0.1846 ( 41) -0.1871 ( 42) -0.1871 ( 48)
           0.2348 ( 52)  0.2348 ( 53)  0.1552 ( 72) -0.1241 ( 74)  0.1220 ( 96)
          -0.2161 ( 97)  0.1511 (100) -0.1622 (105) -0.1330 (107) -0.1391 (108)
          -0.1272 (115) -0.1037 (131)  0.1045 (134)  0.1521 (136)  0.1951 (140)
 CRD 53=  -0.1038 (  1)  0.1161 (  3) -0.1132 (  7) -0.1291 (  8)  0.1080 (  9)
           0.1859 ( 12)  0.1859 ( 13) -0.1307 ( 16)  0.1087 ( 33)  0.1109 ( 34)
          -0.1194 ( 50) -0.1152 ( 54) -0.2015 ( 73)  0.1322 ( 74)  0.1065 ( 78)
          -0.1646 ( 81)  0.1116 ( 82)  0.1185 ( 85) -0.1395 ( 86)  0.2067 ( 87)
          -0.1571 ( 91)  0.1795 ( 92)  0.1553 ( 93) -0.1842 (117) -0.1791 (118)
          -0.1263 (121)  0.2396 (122) -0.1397 (124)  0.2051 (125)  0.1068 (128)
           0.1123 (129)  0.1580 (130) -0.1165 (134)
 CRD 54=  -0.1632 ( 14)  0.1570 ( 16) -0.1430 ( 44) -0.1430 ( 49)  0.1045 ( 51)
           0.1045 ( 60)  0.1006 ( 65)  0.1296 ( 72)  0.2365 ( 76)  0.1261 ( 83)
          -0.1845 ( 85) -0.1921 ( 86)  0.1117 ( 90) -0.1818 ( 92) -0.1138 ( 93)
           0.1173 ( 99)  0.1852 (100)  0.2377 (101) -0.1049 (102) -0.1223 (103)
          -0.1295 (106) -0.1214 (111) -0.1571 (114) -0.3482 (115)  0.1617 (117)
           0.1443 (118)  0.1887 (122)  0.1968 (125) -0.1863 (136)

 THE DETERMINANT OF THE G MATRIX IS 10**(   -12)


                     --------------------
                     INTERNAL COORDINATES
                     --------------------

                 - - ATOMS - -         COORDINATE      COORDINATE
 NO.   TYPE    I  J  K  L  M  N        (BOHR,RAD)       (ANG,DEG)
 ----------------------------------------------------------------
   1 STRETCH   1  7                     2.0612356       1.0907590
   2 STRETCH   1  2                     2.9295468       1.5502495
   3 STRETCH   1  8                     2.0563501       1.0881737
   4 STRETCH   1  4                     2.8864032       1.5274189
   5 STRETCH   2  3                     2.9235164       1.5470583
   6 STRETCH   2 10                     2.0533215       1.0865710
   7 STRETCH   2  9                     2.0532053       1.0865095
   8 STRETCH   3 12                     2.0607961       1.0905264
   9 STRETCH   3 11                     2.0519623       1.0858518
  10 STRETCH   3  5                     2.9223680       1.5464507
  11 STRETCH   4 13                     2.0414316       1.0802791
  12 STRETCH   4  5                     2.6761041       1.4161334
  13 STRETCH   4  5                     2.6761041       1.4161334
  14 STRETCH   4 17                     3.9306302       2.0800001
  15 STRETCH   5  6                     2.9022066       1.5357817
  16 STRETCH   5 18                     3.7794520       2.0000000
  17 STRETCH   6 15                     2.0514876       1.0856006
  18 STRETCH   6 14                     2.0577205       1.0888989
  19 STRETCH   6 16                     2.0505107       1.0850836
  20 STRETCH  17 18                     3.7416574       1.9800000
  21 STRETCH  17 20                     2.1782627       1.1526870
  22 STRETCH  17 19                     2.1769911       1.1520142
  23 BEND      1  2  3                  1.8290054     104.7942898
  24 BEND      1  4  5                  1.9448568     111.4320848
  25 BEND      1  4 17                  1.9465445     111.5287819
  26 BEND      1  4 13                  2.1271389     121.8760807
  27 BEND      1  2 10                  1.9591095     112.2487033
  28 BEND      1  4  5                  1.9448568     111.4320848
  29 BEND      1  2  9                  1.9219339     110.1186993
  30 BEND      2  3  5                  1.8226559     104.4304884
  31 BEND      2  3 11                  1.9773777     113.2953965
  32 BEND      2  1  4                  1.8122928     103.8367279
  33 BEND      2  1  7                  1.9288330     110.5139904
  34 BEND      2  3 12                  1.9237492     110.2227105
  35 BEND      2  1  8                  1.9565934     112.1045434
  36 BEND      3  2  9                  1.9174718     109.8630407
  37 BEND      3  2 10                  1.9508883     111.7776641
  38 BEND      3  5 18                  1.5939099      91.3243077
  39 BEND      3  5  6                  2.0855740     119.4945871
  40 BEND      3  5  4                  1.8844667     107.9719906
  41 BEND      3  5  4                  1.8844667     107.9719906
  42 BEND      4  5  6                  2.1160593     121.2412645
  43 BEND      4  1  7                  1.9105200     109.4647338
  44 BEND      4  5 18                  2.1868511     125.2973358
  45 BEND      4 17 19                  1.8593797     106.5346117
  46 BEND      4 17 20                  1.8557732     106.3279746
  47 BEND      4 17 18                  1.6963827      97.1955680
  48 BEND      4  5  6                  2.1160593     121.2412645
  49 BEND      4  5 18                  2.1868511     125.2973358
  50 BEND      4  1  8                  1.9801311     113.4531535
  51 BEND      5  4 17                  1.2625988      72.3415808
  52 BEND      5  4 13                  2.1203923     121.4895280
  53 BEND      5  4 13                  2.1203923     121.4895280
  54 BEND      5  3 11                  1.9852371     113.7457057
  55 BEND      5  3 12                  1.8642730     106.8149773
  56 BEND      5  6 14                  1.8946670     108.5564210
  57 BEND      5  6 15                  1.9331054     110.7587820
  58 BEND      5  6 16                  1.9425343     111.2990171
  59 BEND      5 18 17                  1.1304968      64.7726977
  60 BEND      5  4 17                  1.2625988      72.3415808
  61 BEND      6  5 18                  1.5283026      87.5652909
  62 BEND      7  1  8                  1.8755835     107.4630204
  63 BEND      9  2 10                  1.8853908     108.0249351
  64 BEND     11  3 12                  1.8871057     108.1231906
  65 BEND     13  4 17                  1.8500672     106.0010420
  66 BEND     14  6 16                  1.8986678     108.7856508
  67 BEND     14  6 15                  1.8921081     108.4098077
  68 BEND     15  6 16                  1.9017841     108.9642028
  69 BEND     18 17 19                  1.8279539     104.7340411
  70 BEND     18 17 20                  1.8467910     105.8133290
  71 BEND     19 17 20                  2.2896131     131.1851663
  72 TORSION   1  4  5 18               1.7652608     101.1419915
  73 TORSION   1  2  3  5              -0.4755739     -27.2483785
  74 TORSION   1  4  5  6              -2.5696454    -147.2298360
  75 TORSION   1  2  3 11              -2.6449839    -151.5464167
  76 TORSION   1  4  5  3              -0.0679576      -3.8936838
  77 TORSION   1  2  3 12               1.5211015      87.1526977
  78 TORSION   1  4 17 19               0.1008822       5.7801221
  79 TORSION   1  4 17 20               2.6035476     149.1722909
  80 TORSION   1  4 17 18              -1.7797367    -101.9713990
  81 TORSION   2  1  4 17               1.1412184      65.3869995
  82 TORSION   2  3  5 18              -1.8910565    -108.3495555
  83 TORSION   2  1  4 13              -2.9348077    -168.1520967
  84 TORSION   2  3  5  6               2.8570828     163.6987836
  85 TORSION   2  3  5  4               0.3422784      19.6111086
  86 TORSION   2  1  4  5              -0.2328497     -13.3413073
  87 TORSION   3  2  1  4               0.4329895      24.8084738
  88 TORSION   3  2  1  7              -1.6142023     -92.4869802
  89 TORSION   3  2  1  8               2.5771339     147.6588952
  90 TORSION   3  5  4 17              -1.9316859    -110.6774502
  91 TORSION   3  5  4 13               2.6359539     151.0290337
  92 TORSION   3  5  6 16               0.8336173      47.7627518
  93 TORSION   3  5  6 14              -1.2555491     -71.9376639
  94 TORSION   3  5  6 15               2.9521919     169.1481371
  95 TORSION   3  5 18 17               2.0853390     119.4811252
  96 TORSION   4 17 18  5              -0.0609651      -3.4930455
  97 TORSION   4  5 18 17               0.1089985       6.2451533
  98 TORSION   4  1  2 10               2.5537245     146.3176336
  99 TORSION   4  5  6 16              -3.0189251    -172.9716649
 100 TORSION   4  5  6 14               1.1750939      67.3279194
 101 TORSION   4  5  6 15              -0.9003504     -51.5862797
 102 TORSION   4  5  3 11               2.5066462     143.6202493
 103 TORSION   4  5  3 12              -1.6959975     -97.1734972
 104 TORSION   4  1  2  9              -1.6282376     -93.2911406
 105 TORSION   5  4 17 18               0.0817809       4.6856980
 106 TORSION   5  4  1  7               1.8270524     104.6823937
 107 TORSION   5  4 17 20              -1.8181202    -104.1706120
 108 TORSION   5  4 17 19               1.9623997     112.4372192
 109 TORSION   5 18 17 19              -1.9678622    -112.7501978
 110 TORSION   5 18 17 20               1.8464208     105.7921209
 111 TORSION   5  4  1  8              -2.3614214    -135.2994795
 112 TORSION   5  3  2  9               1.5886823      91.0247904
 113 TORSION   5  3  2 10              -2.6016982    -149.0663244
 114 TORSION   6  5  4 17               1.8498116     105.9863976
 115 TORSION   6  5  4 13               0.1342661       7.6928815
 116 TORSION   6  5 18 17              -2.1127392    -121.0510386
 117 TORSION   6  5  3 11              -1.2617347     -72.2920758
 118 TORSION   6  5  3 12               0.8188069      46.9141777
 119 TORSION   7  1  2  9               2.6077559     149.4134054
 120 TORSION   7  1  4 17              -3.0820647    -176.5892996
 121 TORSION   7  1  2 10               0.5065326      29.0221796
 122 TORSION   7  1  4 13              -0.8749056     -50.1283957
 123 TORSION   8  1  4 17              -0.9873532     -56.5711728
 124 TORSION   8  1  2 10              -1.5853165     -90.8319450
 125 TORSION   8  1  4 13               1.2198059      69.8897311
 126 TORSION   8  1  2  9               0.5159068      29.5592809
 127 TORSION   9  2  3 12              -2.6978276    -154.5741334
 128 TORSION   9  2  3 11              -0.5807277     -33.2732478
 129 TORSION  10  2  3 12              -0.6050227     -34.6652481
 130 TORSION  10  2  3 11               1.5120771      86.6356374
 131 TORSION  11  3  5 18               0.2733113      15.6595851
 132 TORSION  12  3  5 18               2.3538529     134.8658386
 133 TORSION  13  4 17 18               2.1520654     123.3042658
 134 TORSION  13  4 17 20               0.2521644      14.4479558
 135 TORSION  13  4 17 19              -2.2505011    -128.9442130
 136 TORSION  13  4  5 18              -1.8140130    -103.9352910
 137 TORSION  14  6  5 18              -2.8288711    -162.0823745
 138 TORSION  15  6  5 18               1.3788699      79.0034264
 139 TORSION  16  6  5 18              -0.7397047     -42.3819588
 140 TORSION  17  4  5 18              -0.0984675      -5.6417750

     ------------------------------------------
     THE POINT GROUP IS C1 , NAXIS= 0, ORDER= 1
     ------------------------------------------

     DIMENSIONS OF THE SYMMETRY SUBSPACES ARE
 A   =   48

 ..... DONE SETTING UP THE RUN .....
 STEP CPU TIME =     0.08 TOTAL CPU TIME =          0.1 (      0.0 MIN)
 TOTAL WALL CLOCK TIME=          0.1 SECONDS, CPU UTILIZATION IS    88.89%


          -----------------------------
          STATIONARY POINT LOCATION RUN
          -----------------------------

 OBTAINING INITIAL HESSIAN, HESS=CALC    

     ---------------------------------
     HESSIAN MATRIX CONTROL PARAMETERS
     ---------------------------------
     METHOD=ANALYTIC   NVIB  =       2   VIBSIZ= 0.01000
     RDHESS=       F   PURIFY=       F   PRTIFC=       F
     VIBANL=       F   DECOMP=       F   PROJCT=       F
     SCLFAC= 1.00000   PRTSCN=       F   NPRT  =       0
     PULCOR=       F   NPUN  =       0   REDOVB=       T
     HSSTYP=GENERAL 
 Old integral subroutine is used

     ------------------------------
     CPHF RESPONSE SOLUTION OPTIONS
     ------------------------------
     POLAR  =       F     NWORD  =       0
     CPHF   =AO      

          ********************
          1 ELECTRON INTEGRALS
          ********************
 ...... END OF ONE-ELECTRON INTEGRALS ......
 STEP CPU TIME =     0.03 TOTAL CPU TIME =          0.1 (      0.0 MIN)
 TOTAL WALL CLOCK TIME=          0.1 SECONDS, CPU UTILIZATION IS    91.67%

          -------------
          GUESS OPTIONS
          -------------
          GUESS =HUCKEL            NORB  =       0          NORDER=       0
          MIX   =       F          PRTMO =       F          PUNMO =       F
          TOLZ  = 1.0E-08          TOLE  = 1.0E-05
          SYMDEN=       F          PURIFY=       F

 INITIAL GUESS ORBITALS GENERATED BY HUCKEL   ROUTINE.
 HUCKEL GUESS REQUIRES     39252 WORDS.

 SYMMETRIES FOR INITIAL GUESS ORBITALS FOLLOW.   BOTH SET(S).
    27 ORBITALS ARE OCCUPIED (    7 CORE ORBITALS).
     8=A        9=A       10=A       11=A       12=A       13=A       14=A   
    15=A       16=A       17=A       18=A       19=A       20=A       21=A   
    22=A       23=A       24=A       25=A       26=A       27=A       28=A   
    29=A       30=A       31=A       32=A       33=A       34=A       35=A   
    36=A       37=A   
 ...... END OF INITIAL ORBITAL SELECTION ......
 STEP CPU TIME =     0.03 TOTAL CPU TIME =          0.1 (      0.0 MIN)
 TOTAL WALL CLOCK TIME=          0.2 SECONDS, CPU UTILIZATION IS    87.50%

                    ----------------------
                    AO INTEGRAL TECHNOLOGY
                    ----------------------
     S,P,L SHELL ROTATED AXIS INTEGRALS, REPROGRAMMED BY
        KAZUYA ISHIMURA (IMS) AND JOSE SIERRA (SYNSTAR).
     S,P,D,L SHELL ROTATED AXIS INTEGRALS PROGRAMMED BY
        KAZUYA ISHIMURA (INSTITUTE FOR MOLECULAR SCIENCE).
     S,P,D,F,G SHELL TO TOTAL QUARTET ANGULAR MOMENTUM SUM 5,
        ERIC PROGRAM BY GRAHAM FLETCHER (ELORET AND NASA ADVANCED
        SUPERCOMPUTING DIVISION, AMES RESEARCH CENTER).
     S,P,D,F,G,L SHELL GENERAL RYS QUADRATURE PROGRAMMED BY
        MICHEL DUPUIS (PACIFIC NORTHWEST NATIONAL LABORATORY).

          --------------------
          2 ELECTRON INTEGRALS
          --------------------

 THE -PK- OPTION IS OFF, THE INTEGRALS ARE NOT IN SUPERMATRIX FORM.
 STORING   15000 INTEGRALS/RECORD ON DISK, USING 12 BYTES/INTEGRAL.
 TWO ELECTRON INTEGRAL EVALUATION REQUIRES   89734 WORDS OF MEMORY.
 SCHWARZ INEQUALITY OVERHEAD:      1164 INTEGRALS, T=        0.00
 II,JST,KST,LST =  1  1  1  1 NREC =         1 INTLOC =    1
 II,JST,KST,LST =  2  1  1  1 NREC =         1 INTLOC =    2
 II,JST,KST,LST =  3  1  1  1 NREC =         1 INTLOC =   34
 II,JST,KST,LST =  4  1  1  1 NREC =         1 INTLOC =  140
 II,JST,KST,LST =  5  1  1  1 NREC =         1 INTLOC = 1358
 II,JST,KST,LST =  6  1  1  1 NREC =         1 INTLOC = 1929
 II,JST,KST,LST =  7  1  1  1 NREC =         1 INTLOC = 6786
 II,JST,KST,LST =  8  1  1  1 NREC =         1 INTLOC = 8470
 II,JST,KST,LST =  9  1  1  1 NREC =         2 INTLOC = 5903
 II,JST,KST,LST = 10  1  1  1 NREC =         2 INTLOC = 9821
 II,JST,KST,LST = 11  1  1  1 NREC =         4 INTLOC = 5274
 II,JST,KST,LST = 12  1  1  1 NREC =         4 INTLOC =11773
 II,JST,KST,LST = 13  1  1  1 NREC =         7 INTLOC =10834
 II,JST,KST,LST = 14  1  1  1 NREC =         8 INTLOC =10165
 II,JST,KST,LST = 15  1  1  1 NREC =         9 INTLOC =10753
 II,JST,KST,LST = 16  1  1  1 NREC =        10 INTLOC =13000
 II,JST,KST,LST = 17  1  1  1 NREC =        12 INTLOC = 1777
 II,JST,KST,LST = 18  1  1  1 NREC =        13 INTLOC = 7612
 II,JST,KST,LST = 19  1  1  1 NREC =        15 INTLOC =  339
 II,JST,KST,LST = 20  1  1  1 NREC =        16 INTLOC =10016
 II,JST,KST,LST = 21  1  1  1 NREC =        18 INTLOC = 6527
 II,JST,KST,LST = 22  1  1  1 NREC =        20 INTLOC = 4815
 II,JST,KST,LST = 23  1  1  1 NREC =        22 INTLOC = 5419
 II,JST,KST,LST = 24  1  1  1 NREC =        24 INTLOC = 2978
 II,JST,KST,LST = 25  1  1  1 NREC =        34 INTLOC =13046
 II,JST,KST,LST = 26  1  1  1 NREC =        38 INTLOC =  352
 II,JST,KST,LST = 27  1  1  1 NREC =        41 INTLOC = 5717
 SCHWARZ INEQUALITY TEST SKIPPED        7804 INTEGRAL BLOCKS.
 TOTAL NUMBER OF NONZERO TWO-ELECTRON INTEGRALS =              658793
         44 INTEGRAL RECORDS WERE STORED ON DISK FILE  8.
  ...... END OF TWO-ELECTRON INTEGRALS .....
 STEP CPU TIME =     0.23 TOTAL CPU TIME =          0.4 (      0.0 MIN)
 TOTAL WALL CLOCK TIME=          0.4 SECONDS, CPU UTILIZATION IS    94.87%

          --------------------------
                 RHF SCF CALCULATION
          --------------------------

     NUCLEAR ENERGY =       304.0094228571
     MAXIT =   30     NPUNCH=    2
     EXTRAP=T  DAMP=F  SHIFT=F  RSTRCT=F  DIIS=F  DEM=F  SOSCF=T
     DENSITY MATRIX CONV=  1.00E-05
     SOSCF WILL OPTIMIZE     567 ORBITAL ROTATIONS, SOGTOL=   0.250
     MEMORY REQUIRED FOR RHF ITERS=     49068 WORDS.

 ITER EX DEM     TOTAL ENERGY        E CHANGE  DENSITY CHANGE     ORB. GRAD
   1  0  0     -255.8158054269  -255.8158054269   0.324828573   0.000000000
          ---------------START SECOND ORDER SCF---------------
   2  1  0     -256.1549623964    -0.3391569695   0.089495058   0.022299339
   3  2  0     -256.1707339282    -0.0157715318   0.037938821   0.008692171
   4  3  0     -256.1729633276    -0.0022293993   0.005111382   0.001032884
   5  4  0     -256.1730167031    -0.0000533756   0.000911845   0.000382351
   6  5  0     -256.1730204365    -0.0000037333   0.000600029   0.000143552
   7  6  0     -256.1730211211    -0.0000006847   0.000172056   0.000042199
   8  7  0     -256.1730211702    -0.0000000490   0.000038679   0.000010372
   9  8  0     -256.1730211765    -0.0000000064   0.000012914   0.000003240
  10  9  0     -256.1730211770    -0.0000000005   0.000003443   0.000000685
  11 10  0     -256.1730211771    -0.0000000000   0.000001285   0.000000258

          -----------------
          DENSITY CONVERGED
          -----------------
     TIME TO FORM FOCK OPERATORS=       0.1 SECONDS (       0.0 SEC/ITER)
     TIME TO SOLVE SCF EQUATIONS=       0.1 SECONDS (       0.0 SEC/ITER)

 FINAL RHF ENERGY IS     -256.1730211771 AFTER  11 ITERATIONS

          ------------
          EIGENVECTORS
          ------------

                      1          2          3          4          5
                  -11.1095   -11.0649   -11.0632   -11.0528   -11.0502
                     A          A          A          A          A   
    1  C  1  S   -0.000501  -0.000083  -0.003759   0.989971   0.062522
    2  C  1  S    0.000120  -0.000020   0.000005   0.037608  -0.003203
    3  C  1  X    0.000024  -0.000018  -0.000077   0.000000   0.001628
    4  C  1  Y    0.000064   0.000000   0.000150  -0.000307   0.002311
    5  C  1  Z    0.000036   0.000020  -0.000128   0.000060   0.003057
    6  C  2  S   -0.000597  -0.000331  -0.011328  -0.061570   0.989992
    7  C  2  S    0.000094  -0.000029  -0.005966  -0.007898   0.036737
    8  C  2  X   -0.000153  -0.000053  -0.002240  -0.001455  -0.000089
    9  C  2  Y   -0.000118  -0.000017   0.003502  -0.002425  -0.000103
   10  C  2  Z    0.000007   0.000003  -0.000029  -0.003025  -0.000399
   11  C  3  S   -0.002729  -0.007631   0.991859   0.003047   0.012535
   12  C  3  S   -0.005461  -0.000157   0.037246   0.000529  -0.005152
   13  C  3  X   -0.003527   0.000011   0.000051  -0.000204   0.002398
   14  C  3  Y   -0.001210  -0.000015  -0.000158   0.000171  -0.003439
   15  C  3  Z   -0.001554   0.000048   0.000462  -0.000207   0.000142
   16  C  4  S    0.002234  -0.000419  -0.001048  -0.004662  -0.002041
   17  C  4  S   -0.006427   0.000125   0.000108  -0.005965  -0.000319
   18  C  4  X   -0.000488   0.000064   0.000051   0.004035   0.000297
   19  C  4  Y    0.004030  -0.000027   0.000027  -0.001380  -0.000005
   20  C  4  Z    0.001694   0.000092  -0.000000   0.000358   0.000197
   21  C  5  S    0.992319   0.003774   0.003730   0.000534   0.000752
   22  C  5  S    0.034503  -0.005502  -0.005551   0.000203   0.000097
   23  C  5  X   -0.000875  -0.002797   0.003694  -0.000030   0.000095
   24  C  5  Y    0.001175   0.002919   0.001384   0.000070  -0.000129
   25  C  5  Z    0.001365  -0.001552   0.001561   0.000017   0.000080
   26  C  6  S   -0.002829   0.991918   0.007631   0.000085   0.000440
   27  C  6  S   -0.005432   0.037785   0.000441  -0.000020  -0.000069
   28  C  6  X    0.002621   0.000035  -0.000042  -0.000006   0.000065
   29  C  6  Y   -0.002779  -0.000099  -0.000014  -0.000033  -0.000029
   30  C  6  Z    0.001245   0.000213  -0.000053  -0.000002   0.000032
   31  H  7  S   -0.000008   0.000001   0.000055  -0.007003  -0.000369
   32  H  8  S   -0.000036   0.000006  -0.000086  -0.006939  -0.000315
   33  H  9  S    0.000030   0.000006   0.000132   0.000509  -0.007013
   34  H 10  S   -0.000097  -0.000011   0.000192   0.000561  -0.006972
   35  H 11  S    0.000055   0.000091  -0.006925  -0.000141   0.000032
   36  H 12  S   -0.000081  -0.000032  -0.007045  -0.000012  -0.000024
   37  H 13  S    0.000091  -0.000128  -0.000052   0.000132  -0.000100
   38  H 14  S   -0.000076  -0.007000  -0.000004   0.000006   0.000003
   39  H 15  S    0.000035  -0.006982  -0.000117  -0.000017  -0.000010
   40  H 16  S    0.000024  -0.006956  -0.000143  -0.000005  -0.000020
   41  B 17  S    0.000298  -0.000004   0.000003   0.000005   0.000010
   42  B 17  S   -0.001861   0.000050   0.000016   0.000051  -0.000043
   43  B 17  X    0.000783  -0.000030   0.000026   0.000059   0.000118
   44  B 17  Y    0.001826  -0.000032   0.000006   0.000011   0.000001
   45  B 17  Z   -0.000875   0.000002   0.000001   0.000015   0.000037
   46  H 18  S   -0.001265  -0.000176  -0.000053   0.000003   0.000023
   47  H 19  S    0.000028  -0.000020  -0.000005  -0.000062   0.000102
   48  H 20  S    0.000121   0.000060  -0.000029  -0.000048  -0.000044

                      6          7          8          9         10
                  -11.0267    -7.3798    -1.1065    -0.9861    -0.9312
                     A          A          A          A          A   
    1  C  1  S    0.005747   0.000024  -0.089223   0.097418   0.103282
    2  C  1  S   -0.005355   0.000090   0.232880  -0.270399  -0.297398
    3  C  1  X   -0.003903  -0.000066   0.027315   0.027366  -0.067996
    4  C  1  Y    0.001384   0.000044  -0.041639   0.024626  -0.014360
    5  C  1  Z   -0.000423   0.000125  -0.020762   0.032811  -0.041065
    6  C  2  S    0.001816   0.000018  -0.090047   0.114112  -0.067174
    7  C  2  S    0.000130   0.000028   0.234123  -0.317566   0.192480
    8  C  2  X   -0.000211  -0.000186   0.043597  -0.014587   0.005051
    9  C  2  Y    0.000016  -0.000026  -0.012539  -0.015267  -0.096429
   10  C  2  Z    0.000029   0.000025   0.026123  -0.026016  -0.047818
   11  C  3  S    0.001172   0.000017  -0.104908   0.025622  -0.149188
   12  C  3  S    0.000154   0.000007   0.276045  -0.069230   0.431263
   13  C  3  X    0.000067  -0.000001   0.024891   0.072159  -0.024110
   14  C  3  Y   -0.000161  -0.000049   0.045621  -0.043015  -0.008664
   15  C  3  Z   -0.000116   0.000001   0.027944   0.014292  -0.010336
   16  C  4  S    0.992123   0.000460  -0.110153  -0.015910   0.130653
   17  C  4  S    0.035832  -0.002592   0.280403   0.044792  -0.368927
   18  C  4  X    0.000014  -0.001342  -0.028010   0.070173   0.028357
   19  C  4  Y   -0.001786  -0.001058  -0.058428  -0.064822  -0.004946
   20  C  4  Z   -0.000629   0.001900  -0.042897  -0.008749  -0.000243
   21  C  5  S   -0.001547   0.000386  -0.132300  -0.101099   0.003061
   22  C  5  S   -0.006758  -0.002099   0.352979   0.288645  -0.007881
   23  C  5  X    0.000823  -0.001046  -0.046868   0.074872  -0.053545
   24  C  5  Y   -0.003645  -0.001375   0.039131  -0.042446  -0.129076
   25  C  5  Z   -0.002588   0.001215   0.024601   0.049423  -0.077640
   26  C  6  S    0.000460   0.000003  -0.056301  -0.148407  -0.022218
   27  C  6  S    0.000243   0.000133   0.150781   0.414858   0.063779
   28  C  6  X   -0.000051   0.000058  -0.029478  -0.027625  -0.009401
   29  C  6  Y   -0.000010   0.000007   0.029015   0.030513  -0.016692
   30  C  6  Z   -0.000044  -0.000003  -0.012091  -0.009206  -0.009748
   31  H  7  S   -0.000114  -0.000098   0.044584  -0.067592  -0.083346
   32  H  8  S   -0.000067  -0.000187   0.040442  -0.066062  -0.084278
   33  H  9  S    0.000011  -0.000193   0.045275  -0.077577   0.053086
   34  H 10  S   -0.000114  -0.000064   0.041973  -0.080163   0.059333
   35  H 11  S   -0.000104   0.000056   0.049046  -0.014188   0.128576
   36  H 12  S   -0.000023  -0.000069   0.056539  -0.013190   0.126876
   37  H 13  S   -0.006788  -0.000156   0.050938   0.019424  -0.108883
   38  H 14  S   -0.000079  -0.000042   0.031067   0.105943   0.018626
   39  H 15  S   -0.000025  -0.000316   0.028809   0.104441   0.008396
   40  H 16  S   -0.000100   0.000094   0.027883   0.100740   0.027942
   41  B 17  S    0.000388   0.990886  -0.017652  -0.010433   0.018050
   42  B 17  S   -0.002566   0.036291   0.033455   0.021664  -0.037668
   43  B 17  X    0.001339  -0.000189  -0.010626  -0.000380   0.009963
   44  B 17  Y   -0.000019   0.000346  -0.008677  -0.011131  -0.000420
   45  B 17  Z   -0.002101   0.000574   0.012064   0.007723  -0.019323
   46  H 18  S    0.000096  -0.002533   0.013685   0.016974   0.004430
   47  H 19  S    0.000309  -0.006319   0.009085   0.000700  -0.011427
   48  H 20  S    0.000302  -0.006360   0.007294   0.008303  -0.012575

                     11         12         13         14         15
                   -0.8803    -0.7671    -0.6857    -0.6466    -0.6192
                     A          A          A          A          A   
    1  C  1  S   -0.086137   0.105590  -0.032869  -0.013031   0.007510
    2  C  1  S    0.252979  -0.327958   0.104501   0.042598  -0.022746
    3  C  1  X   -0.081816  -0.002892  -0.112488   0.041715   0.213210
    4  C  1  Y    0.013880  -0.080822   0.006829   0.179772  -0.135767
    5  C  1  Z   -0.025883  -0.122205  -0.077978  -0.067935  -0.126983
    6  C  2  S   -0.084782  -0.123094   0.002130   0.015377   0.004987
    7  C  2  S    0.249920   0.384303  -0.005895  -0.050942  -0.012158
    8  C  2  X   -0.040383  -0.081956   0.051639   0.065120   0.278507
    9  C  2  Y    0.071656   0.018221   0.128015   0.071546  -0.015823
   10  C  2  Z    0.022706  -0.109657   0.054642  -0.144834  -0.012370
   11  C  3  S    0.065595   0.082177   0.049646  -0.017124  -0.009620
   12  C  3  S   -0.193386  -0.257560  -0.159860   0.056663   0.032798
   13  C  3  X   -0.063425  -0.059323   0.200073   0.055300   0.009544
   14  C  3  Y    0.021854   0.145631   0.115362  -0.046763   0.189935
   15  C  3  Z   -0.017485  -0.026595   0.074091  -0.220562  -0.003557
   16  C  4  S    0.073979  -0.036682   0.102272   0.010000  -0.023933
   17  C  4  S   -0.210883   0.110306  -0.334089  -0.024461   0.080047
   18  C  4  X   -0.049956   0.130565  -0.090905   0.061285  -0.201062
   19  C  4  Y    0.076911  -0.089018  -0.141159   0.150817   0.019510
   20  C  4  Z    0.034831  -0.039895  -0.205463  -0.078222  -0.124010
   21  C  5  S    0.069547  -0.025561  -0.115353   0.018502   0.056959
   22  C  5  S   -0.211442   0.080274   0.392689  -0.055046  -0.205378
   23  C  5  X    0.116678   0.083928  -0.040976   0.085372  -0.209360
   24  C  5  Y   -0.125070   0.142848  -0.052511   0.007690   0.139337
   25  C  5  Z    0.012016   0.066736  -0.068782  -0.171202  -0.065179
   26  C  6  S   -0.146055   0.008563   0.025561  -0.001746  -0.026345
   27  C  6  S    0.427582  -0.026176  -0.079491   0.005619   0.086561
   28  C  6  X    0.042085   0.016694  -0.110940   0.084806   0.150095
   29  C  6  Y   -0.046388   0.054046   0.076486  -0.013255  -0.217613
   30  C  6  Z    0.022504   0.011360  -0.096970  -0.098007   0.097465
   31  H  7  S    0.084592  -0.167243   0.028200  -0.062459  -0.161962
   32  H  8  S    0.088813  -0.143168   0.061200   0.153226  -0.098730
   33  H  9  S    0.078430   0.188678   0.009135   0.111920   0.018456
   34  H 10  S    0.090453   0.169813  -0.049942  -0.092638  -0.214182
   35  H 11  S   -0.057221  -0.115873  -0.131458   0.185955  -0.045609
   36  H 12  S   -0.056245  -0.145314  -0.136528  -0.081692  -0.091681
   37  H 13  S   -0.058407   0.052994  -0.309642   0.001974  -0.111438
   38  H 14  S    0.138370  -0.020161  -0.083636  -0.083161   0.120822
   39  H 15  S    0.138219   0.017031  -0.092651   0.047340   0.077143
   40  H 16  S    0.140338  -0.039336  -0.037519   0.066897   0.123260
   41  B 17  S    0.020245  -0.032949  -0.007943  -0.145173   0.018468
   42  B 17  S   -0.043873   0.076276   0.021409   0.363773  -0.047093
   43  B 17  X    0.012014  -0.007282  -0.014700  -0.007401  -0.049070
   44  B 17  Y    0.008806  -0.008619  -0.028931   0.022999   0.018796
   45  B 17  Z   -0.015694   0.019933  -0.021828  -0.003251  -0.016938
   46  H 18  S   -0.009973   0.008253   0.050545   0.101205  -0.037715
   47  H 19  S   -0.011262   0.027789   0.014312   0.206870   0.011799
   48  H 20  S   -0.011797   0.033443  -0.010073   0.186409  -0.058649

                     16         17         18         19         20
                   -0.5945    -0.5594    -0.5568    -0.5299    -0.4927
                     A          A          A          A          A   
    1  C  1  S   -0.001283  -0.011305  -0.012175   0.000426   0.002470
    2  C  1  S    0.005905   0.038601   0.040849   0.000939  -0.012111
    3  C  1  X   -0.073546  -0.059439  -0.031955   0.106369   0.004519
    4  C  1  Y   -0.160417  -0.071059   0.160260   0.184997   0.152881
    5  C  1  Z    0.062875   0.101468  -0.108381  -0.288295  -0.004977
    6  C  2  S    0.004702   0.006887   0.013645  -0.000996   0.023002
    7  C  2  S   -0.013838  -0.021973  -0.047534   0.003750  -0.088107
    8  C  2  X   -0.054845   0.050177   0.073400  -0.005894  -0.310002
[...]
 18   H            X -0.00639755  0.01006085 -0.11323794 -0.02318123 -0.00677781
                   Y  0.00286563  0.00378563  0.79225105  0.13914733  0.00441460
                   Z  0.01145410 -0.00397571  0.50731015  0.09587307 -0.00318222
 19   H            X  0.00281145  0.00648229  0.08062660 -0.36242736  0.36473361
                   Y -0.00776838  0.00352662 -0.09466003  0.39608123 -0.39420965
                   Z -0.00537879  0.00255928  0.06606271 -0.39787964  0.39269709
 20   H            X  0.00147062  0.00230276 -0.12760427  0.62645842  0.60368563
                   Y -0.00553576  0.00166740 -0.05038333  0.17738613  0.16965333
                   Z -0.00945400 -0.01327934 -0.05351059  0.18813421  0.18646835

 TRANS. SAYVETZ    X -0.00000008  0.00000028  0.00000105  0.00000011  0.00000003
                   Y -0.00000029 -0.00000005  0.00000098 -0.00000028 -0.00000005
                   Z -0.00000043  0.00000001 -0.00000071 -0.00000011  0.00000004
               TOTAL  0.00000053  0.00000029  0.00000160  0.00000032  0.00000007

   ROT. SAYVETZ    X -0.00000178 -0.00000528  0.00000388 -0.00000306  0.00000391
                   Y -0.00000179  0.00000305 -0.00001403 -0.00000126  0.00000396
                   Z -0.00000010 -0.00000283  0.00002053  0.00000252 -0.00000573
               TOTAL  0.00000253  0.00000672  0.00002517  0.00000416  0.00000798

                           51          52          53          54          55
       FREQUENCY:      3573.62     3607.36     3611.17     3633.54     3730.24  
        SYMMETRY:         A           A           A           A           A   
    REDUCED MASS:      1.03892     1.06739     1.06683     1.06843     1.11044
    IR INTENSITY:      0.01099     0.08409     0.01256     0.01563     0.01570

  1   C            X  0.00007233  0.03492650 -0.00316754 -0.00238151 -0.01492400
                   Y -0.00011222 -0.03872855  0.00313301  0.00335874 -0.06841877
                   Z -0.00011433 -0.04764816  0.00375860  0.00785633  0.05481140
  2   C            X  0.00011419 -0.00569731  0.00683334 -0.05629191  0.00563863
                   Y  0.00001656  0.00250548  0.00151834  0.01265974  0.00354349
                   Z  0.00005428 -0.00055714  0.00357652 -0.04071683 -0.00454453
  3   C            X -0.00002515 -0.00151353 -0.02062818 -0.00105238  0.00563814
                   Y -0.00054330 -0.00607976 -0.06692698 -0.00946750  0.00173616
                   Z  0.00012546 -0.00038042 -0.00522826  0.00182774 -0.01857576
  4   C            X -0.00001410 -0.00052359  0.00012005 -0.00020249  0.00368294
                   Y -0.00030104  0.00193896 -0.00012710 -0.00020726  0.00277227
                   Z -0.00006433  0.00190360 -0.00035014 -0.00057117  0.00568902
  5   C            X  0.00207762 -0.00028279  0.00146557  0.00055171 -0.00027088
                   Y -0.00167074  0.00011118  0.00052488 -0.00031517 -0.00010321
                   Z  0.00053545  0.00011010  0.00116304  0.00020071  0.00011155
  6   C            X -0.02820722  0.00014494  0.00036490  0.00001534 -0.00007605
                   Y  0.03845087 -0.00006891 -0.00008403  0.00014731 -0.00000267
                   Z -0.02099208  0.00005327 -0.00018204 -0.00005964  0.00006542
  7   H            X -0.00059673 -0.35378251  0.02864718  0.04249392  0.24108943
                   Y -0.00030882 -0.11425972  0.00898109  0.01426483  0.07384995
                   Z  0.00144318  0.68334952 -0.05623276 -0.07599590 -0.46362089
  8   H            X -0.00013818 -0.04139284  0.00360995  0.00128636 -0.06104996
                   Y  0.00175418  0.53624553 -0.04046537 -0.03600802  0.72188419
                   Z -0.00056396 -0.14547494  0.01146614  0.01009852 -0.18581304
  9   H            X  0.00008101 -0.00253459  0.00264788 -0.04594832 -0.00447646
                   Y  0.00046939 -0.01742809  0.03117349 -0.28727618 -0.02252864
                   Z -0.00093622  0.04375980 -0.05679459  0.58469430  0.03914600
 10   H            X -0.00139298  0.07177062 -0.09185008  0.66500851 -0.06005329
                   Y -0.00040835  0.01422939 -0.02110183  0.15032931 -0.01188360
                   Z  0.00030377 -0.01458265  0.01717106 -0.13708717  0.01236258
 11   H            X -0.00046440 -0.00719894 -0.07037812 -0.00698786 -0.01990610
                   Y  0.00068046  0.02134624  0.22245882  0.01683131  0.06588019
                   Z  0.00190431  0.04877127  0.51512823  0.04073978  0.14588900
 12   H            X  0.00221458  0.02755416  0.30415879  0.04065415 -0.04839403
                   Y  0.00344878  0.04717977  0.52951350  0.06474566 -0.08533970
                   Z -0.00297555 -0.04224387 -0.46933609 -0.05871457  0.07454142
 13   H            X  0.00184354 -0.01412103  0.00323030  0.00743879 -0.04567347
                   Y  0.00119673 -0.00932603  0.00249765  0.00356297 -0.02246286
                   Z  0.00276247 -0.02071034  0.00588891  0.01009880 -0.06697192
 14   H            X -0.23396674  0.00057332  0.00052879 -0.00052229  0.00012615
                   Y -0.30849087  0.00084717  0.00051147 -0.00066507  0.00017299
                   Z  0.49949699 -0.00127998 -0.00059852  0.00110344 -0.00027924
 15   H            X  0.43890874 -0.00129268 -0.00427439  0.00011820  0.00058188
                   Y  0.23376822 -0.00079841 -0.00177552  0.00004944  0.00021912
                   Z  0.13646596 -0.00040329 -0.00150143  0.00003786  0.00019073
 16   H            X  0.10240574 -0.00019056 -0.00096369  0.00001497 -0.00013446
                   Y -0.35553654  0.00086955  0.00285420 -0.00032499  0.00022055
                   Z -0.39691878  0.00090768  0.00318046 -0.00046641 -0.00007371
 17   B            X  0.00009563 -0.00031469  0.00023494  0.00001487  0.00023090
                   Y  0.00005337  0.00010231 -0.00021132  0.00017730 -0.00024282
                   Z  0.00011286  0.00013403 -0.00009917 -0.00017259 -0.00009522
 18   H            X -0.00020156  0.00030339  0.00200331  0.00016203  0.00049437
                   Y -0.00311234  0.00049212  0.00441628  0.00027758  0.00179057
                   Z  0.00106821 -0.00016895  0.00087520 -0.00001837 -0.00039664
 19   H            X  0.00048134  0.00035896 -0.00114416  0.00293124 -0.00054099
                   Y -0.00044852 -0.00046461  0.00078191 -0.00122856  0.00086211
                   Z  0.00054099  0.00049725 -0.00081872  0.00191281 -0.00053052
 20   H            X -0.00085223  0.00126049 -0.00003820 -0.00000811 -0.00087998
                   Y -0.00033690  0.00005135  0.00023208 -0.00003030  0.00002599
                   Z -0.00026403  0.00000488  0.00005812  0.00010536 -0.00058964

 TRANS. SAYVETZ    X -0.00000045 -0.00000000  0.00000033 -0.00000007 -0.00000005
                   Y  0.00000086 -0.00000054 -0.00000013 -0.00000028 -0.00000010
                   Z -0.00000054 -0.00000029  0.00000021  0.00000029  0.00000001
               TOTAL  0.00000111  0.00000061  0.00000042  0.00000041  0.00000011

   ROT. SAYVETZ    X -0.00000090  0.00000131 -0.00000210  0.00000058  0.00000020
                   Y -0.00000010 -0.00000054  0.00000129  0.00000126 -0.00000021
                   Z  0.00000083  0.00000056 -0.00000112 -0.00000039 -0.00000034
               TOTAL  0.00000123  0.00000153  0.00000270  0.00000145  0.00000044

                           56          57          58          59          60
       FREQUENCY:      3732.56     3739.33     3746.26     3751.94     3771.74  
        SYMMETRY:         A           A           A           A           A   
    REDUCED MASS:      1.11060     1.09741     1.10786     1.11134     1.11062
    IR INTENSITY:      0.00794     0.16768     0.03180     0.00624     0.03676

  1   C            X  0.00291184  0.00201308  0.00015536  0.00205302  0.00003722
                   Y  0.01440906 -0.00896916 -0.00017369  0.00607230  0.00000081
                   Z -0.01076529  0.00509779  0.00005479 -0.00633413  0.00001746
  2   C            X -0.00925437  0.00019697 -0.00124685  0.05499733  0.00004216
                   Y -0.00445690 -0.00082715 -0.00086005  0.03701134  0.00005220
                   Z  0.00791736  0.00201705  0.00148006 -0.06239133 -0.00001982
  3   C            X  0.02475776 -0.00154261  0.00054323  0.00280288  0.00013163
                   Y  0.00460908  0.00051754  0.00043195  0.00154687 -0.00028067
                   Z -0.08506560  0.00562464 -0.00185848 -0.00891427  0.00037264
  4   C            X -0.00320940 -0.04570572 -0.00251062 -0.00194981 -0.00029805
                   Y -0.00202693 -0.02606212 -0.00128238 -0.00112157  0.00014117
                   Z -0.00506232 -0.06683298 -0.00352571 -0.00272207 -0.00028930
  5   C            X  0.00102040  0.00000906 -0.00035374 -0.00010229  0.00022554
                   Y  0.00070569  0.00413970  0.00105840  0.00045054  0.00007229
                   Z  0.00051830  0.00126362 -0.00029001 -0.00008488  0.00024636
  6   C            X -0.00170232 -0.00232179  0.05370469  0.00098281 -0.04734166
                   Y -0.00035797 -0.00067683  0.01085604  0.00016593 -0.06417710
                   Z  0.00188155  0.00389592 -0.07198587 -0.00132072 -0.04538576
  7   H            X -0.04726913  0.01458992  0.00011021 -0.03096907 -0.00008351
                   Y -0.01452467  0.00574685 -0.00001142 -0.00685360 -0.00000369
                   Z  0.09010590 -0.03161780 -0.00032271  0.06493154  0.00009625
  8   H            X  0.01293754 -0.00916208 -0.00034489  0.00434252 -0.00007678
                   Y -0.14832037  0.09297012  0.00240230 -0.06665271  0.00033351
                   Z  0.03873176 -0.02418865 -0.00057738  0.01694257 -0.00005100
  9   H            X  0.00762602  0.00095286  0.00105881 -0.04098778 -0.00007953
                   Y  0.03050930  0.00986410  0.00692269 -0.30050673 -0.00009822
                   Z -0.06606402 -0.02081303 -0.01435986  0.61508205  0.00033482
 10   H            X  0.09617486  0.00442828  0.01376642 -0.60483518  0.00008705
                   Y  0.02217693  0.00105389  0.00313744 -0.13489455 -0.00008777
                   Z -0.01838347 -0.00057775 -0.00267984  0.11940115  0.00000977
 11   H            X -0.08882651  0.00655671 -0.00149080 -0.00997932  0.00038535
                   Y  0.30133128 -0.02051326  0.00587040  0.03010627 -0.00045521
                   Z  0.67328132 -0.04486667  0.01335241  0.06710613 -0.00108275
 12   H            X -0.21010850  0.01149103 -0.00587503 -0.02679886  0.00080657
                   Y -0.36917434  0.02019335 -0.01024139 -0.05458356  0.00128010
                   Z  0.32221189 -0.01788676  0.00891243  0.04384131 -0.00127877
 13   H            X  0.04019591  0.51216675  0.02646298  0.01972879  0.00156702
                   Y  0.02084928  0.26205436  0.01339442  0.01039459  0.00092810
                   Z  0.05777195  0.74562769  0.03892591  0.02898332  0.00247215
 14   H            X  0.00716904  0.01415164 -0.26510033 -0.00475416  0.03721956
                   Y  0.00911029  0.01850300 -0.34753321 -0.00643207  0.04771528
                   Z -0.01503851 -0.02996875  0.55992843  0.01021214 -0.08415693
 15   H            X  0.00928757  0.01003742 -0.26967117 -0.00509523  0.62905560
                   Y  0.00492154  0.00521619 -0.14419828 -0.00267793  0.33570078
                   Z  0.00310512  0.00332406 -0.08933273 -0.00169576  0.19611304
 16   H            X  0.00242042  0.00524222 -0.09644653 -0.00172796 -0.10780218
                   Y -0.00939017 -0.01855234  0.35362766  0.00641150  0.37865728
                   Z -0.01027067 -0.01930587  0.38819795  0.00716995  0.42348987
 17   B            X -0.00021287 -0.00057047 -0.00004843 -0.00025841  0.00011589
                   Y -0.00010684  0.00072171 -0.00008942  0.00017873 -0.00010482
                   Z  0.00001229  0.00138174  0.00020014 -0.00010749 -0.00001535
 18   H            X -0.00067706 -0.00338646 -0.00055302 -0.00026869 -0.00008221
                   Y  0.00044387 -0.00560361 -0.00176836 -0.00069518  0.00178293
                   Z  0.00207686  0.00573189  0.00198413  0.00031765  0.00047740
 19   H            X -0.00023572 -0.00005148 -0.00053742  0.00292361  0.00010882
                   Y  0.00006129  0.00075819 -0.00011623 -0.00100643 -0.00008459
                   Z  0.00002173  0.00121515  0.00011807  0.00179775  0.00017994
 20   H            X  0.00069732  0.00301570  0.00033084  0.00131389 -0.00033184
                   Y -0.00021093 -0.00000829  0.00006220  0.00004419 -0.00020888
                   Z  0.00078885  0.00088093  0.00007697  0.00067491  0.00006652

 TRANS. SAYVETZ    X  0.00000013  0.00000044  0.00000006  0.00000009 -0.00000001
                   Y  0.00000010  0.00000032 -0.00000002  0.00000001 -0.00000008
                   Z  0.00000001 -0.00000001  0.00000001  0.00000003 -0.00000008
               TOTAL  0.00000016  0.00000054  0.00000006  0.00000009  0.00000011

   ROT. SAYVETZ    X -0.00000006 -0.00000022  0.00000076  0.00000074  0.00000074
                   Y  0.00000021  0.00000196  0.00000054 -0.00000076 -0.00000013
                   Z -0.00000012 -0.00000091  0.00000017  0.00000028 -0.00000055
               TOTAL  0.00000025  0.00000217  0.00000095  0.00000109  0.00000093

 REFERENCE ON SAYVETZ CONDITIONS - A. SAYVETZ, J.CHEM.PHYS., 7, 383-389(1939).

 NOTE - THE MODES J,K ARE ORTHONORMALIZED ACCORDING TO
 SUM ON I   M(I) * (X(I,J)*X(I,K) + Y(I,J)*Y(I,K) + Z(I,J)*Z(I,K)) = DELTA(J,K)

  MODE FREQ(CM**-1)  SYMMETRY  RED. MASS  IR INTENS.
     1     696.830    A        1.831030    3.791185
     2       2.437    A        2.723259    0.123425
     3       1.864    A        3.192596    0.018619
     4       1.197    A        3.005083    0.051266
     5       0.024    A        4.807781    0.000010
     6       0.033    A        4.805283    0.000009
     7       0.107    A        4.815767    0.000391
     8     192.811    A        1.771837    0.005763
     9     214.646    A        1.034699    0.002583
    10     253.386    A        1.996697    0.096172
    11     326.361    A        2.202581    0.117745
    12     365.087    A        2.194057    0.197234
    13     438.487    A        2.243913    0.244212
    14     521.114    A        1.293783    0.026761
    15     599.808    A        3.160490    1.133281
    16     675.369    A        2.716193    0.027056
    17     750.650    A        2.207216    0.059279
    18     884.301    A        1.958944    0.039322
    19     951.003    A        1.671790    0.216648
    20    1014.705    A        2.208564    0.043268
    21    1045.856    A        1.498292    0.184976
    22    1053.520    A        1.464069    0.037068
    23    1092.659    A        2.149448    0.014930
    24    1132.403    A        1.727417    0.032369
    25    1173.494    A        1.322757    0.030002
    26    1211.870    A        1.344889    0.294036
    27    1240.911    A        1.380245    0.781439
    28    1253.757    A        1.401557    0.090204
    29    1322.909    A        1.790461    0.137055
    30    1376.439    A        1.277216    0.663475
    31    1391.000    A        1.718239    0.078773
    32    1459.840    A        1.166073    2.740805
    33    1473.294    A        1.231439    0.046504
    34    1486.063    A        1.332140    0.053690
    35    1504.919    A        1.393570    0.063497
    36    1532.084    A        1.104483    0.594825
    37    1544.036    A        1.087661    0.044225
    38    1621.922    A        1.797457    0.063052
    39    1626.753    A        1.889276    0.017698
    40    1635.403    A        1.791288    0.080233
    41    1709.000    A        1.301266    0.025567
    42    1775.949    A        1.997259    0.203532
    43    1796.878    A        1.095470    0.026716
    44    1800.551    A        1.072035    0.086501
    45    1812.294    A        1.395181    0.029093
    46    1817.842    A        1.125585    0.003592
    47    1833.863    A        1.122324    0.011800
    48    2893.221    A        1.058811    0.808032
    49    3159.968    A        1.063585    0.453013
    50    3310.866    A        1.133963    0.474716
    51    3573.615    A        1.038918    0.010993
    52    3607.365    A        1.067387    0.084092
    53    3611.169    A        1.066835    0.012558
    54    3633.544    A        1.068433    0.015627
    55    3730.238    A        1.110440    0.015696
    56    3732.564    A        1.110604    0.007943
    57    3739.329    A        1.097413    0.167682
    58    3746.256    A        1.107856    0.031801
    59    3751.938    A        1.111340    0.006236
    60    3771.744    A        1.110622    0.036763

     -------------------------------
     THERMOCHEMISTRY AT T=  298.15 K
     -------------------------------

 USING IDEAL GAS, RIGID ROTOR, HARMONIC NORMAL MODE APPROXIMATIONS.
 P=  1.01325E+05 PASCAL.
 ALL FREQUENCIES ARE SCALED BY   1.00000
 THE MOMENTS OF INERTIA ARE (IN AMU*BOHR**2)
            462.51679           740.96215           909.40679
 THE ROTATIONAL SYMMETRY NUMBER IS  1.0
 THE ROTATIONAL CONSTANTS ARE (IN GHZ)
      3.89843     2.43344     1.98271
   1 IMAGINARY FREQUENCY VIBRATION(S) IS(ARE) EXCLUDED
     FROM THE FOLLOWING THERMOCHEMICAL ANALYSIS.
      8 -     60 VIBRATIONAL MODES ARE USED IN THERMOCHEMISTRY.
 THE HARMONIC ZERO POINT ENERGY IS (SCALED BY   1.000)
        0.212268 HARTREE/MOLECULE    46587.527415 CM**-1/MOLECULE 
      133.200559 KCAL/MOL              557.311137 KJ/MOL

               Q               LN Q
 ELEC.     1.00000E+00       0.000000
 TRANS.    3.70351E+07      17.427377
 ROT.      1.99840E+05      12.205272
 VIB.      8.33982E+00       2.121042
 TOT.      6.17238E+13      31.753691

              E         H         G         CV        CP        S
           KJ/MOL    KJ/MOL    KJ/MOL   J/MOL-K   J/MOL-K   J/MOL-K
 ELEC.      0.000     0.000     0.000     0.000     0.000     0.000
 TRANS.     3.718     6.197   -43.201    12.472    20.786   165.684
 ROT.       3.718     3.718   -30.256    12.472    12.472   113.951
 VIB.     566.675   566.675   552.053    76.347    76.347    49.042
 TOTAL    574.112   576.591   478.596   101.291   109.605   328.677
 VIB. THERMAL CORRECTION E(T)-E(0) = H(T)-H(0) =      9363.885 J/MOL

              E         H         G         CV        CP        S
         KCAL/MOL  KCAL/MOL  KCAL/MOL CAL/MOL-K CAL/MOL-K CAL/MOL-K
 ELEC.      0.000     0.000     0.000     0.000     0.000     0.000
 TRANS.     0.889     1.481   -10.325     2.981     4.968    39.600
 ROT.       0.889     0.889    -7.231     2.981     2.981    27.235
 VIB.     135.439   135.439   131.944    18.247    18.247    11.721
 TOTAL    137.216   137.809   114.387    24.209    26.196    78.556
 VIB. THERMAL CORRECTION E(T)-E(0) = H(T)-H(0) =      2238.022 CAL/MOL
 ......END OF NORMAL COORDINATE ANALYSIS......
 STEP CPU TIME =     0.01 TOTAL CPU TIME =         75.8 (      1.3 MIN)
 TOTAL WALL CLOCK TIME=         76.4 SECONDS, CPU UTILIZATION IS    99.21%
               580000  WORDS OF DYNAMIC MEMORY USED
 EXECUTION OF GAMESS TERMINATED NORMALLY Mon Nov 15 16:43:27 2021
 DDI: 263640 bytes (0.3 MB / 0 MWords) used by master data server.

 ----------------------------------------
 CPU timing information for all processes
 ========================================
 0: 74.606 + 1.236 = 75.843
 ----------------------------------------
 ddikick.x: exited gracefully.
----- accounting info -----
Files used on the master node chemcompute-node-0.novalocal were:
-rw-r--r--. 1 chemcomp chemcomp     1552 Nov 15 16:42 /scratch/307097/343135.F05
-rw-rw-r--. 1 chemcomp chemcomp  8100720 Nov 15 16:43 /scratch/307097/343135.F08
-rw-rw-r--. 1 chemcomp chemcomp 85196800 Nov 15 16:43 /scratch/307097/343135.F10
-rw-rw-r--. 1 chemcomp chemcomp   564960 Nov 15 16:43 /scratch/307097/343135.F18
Mon Nov 15 16:43:31 UTC 2021
0.174u 0.107s 1:20.38 0.3%	0+0k 8+224io 0pf+0w
Finishing Up...
Looking for IR data...
Looking for Raman data...
vibramans not found
Looking for thermodynamics data...
Looking for UV-Vis data...
307097
